       2
 i =        1, E =       -29.9429294933
 Cl         0.2914550000        7.9665500000        0.0955020000
 Cl         1.1897136031        6.1981431895        0.0255811089
       2
 i =        2, E =       -29.9264196875
 Cl         0.2914550000        7.9665500000        0.0955020000
 Cl         1.1941831253        6.1896017279        0.0251353553
       2
 i =        3, E =       -29.5707540671
 Cl         0.2914550000        7.9665500000        0.0955020000
 Cl         1.1912218289        6.1959122740        0.0251892858
