#     Step Nr.          Time[fs]        Kin.[a.u.]          Temp[K]            Pot.[a.u.]        Cons Qty[a.u.]        UsedTime[s]
         0            0.000000         0.003892570       273.150000000       -59.572137242       -59.567812164         0.000000000
         1            1.000000         0.003724812       261.378022993       -59.822520114       -59.818364403         7.796845900
