#     Step Nr.          Time[fs]        Kin.[a.u.]          Temp[K]            Pot.[a.u.]        Cons Qty[a.u.]        UsedTime[s]
         0            0.000000         0.009082664       273.150000000      -101.980996297      -101.971481125         0.000000000
         1            1.000000         0.009708661       291.976089420      -102.419356719      -102.409218754         6.219244957
         2            2.000000         0.016608932       499.493304019      -102.647299307      -102.630265554         2.396164894
         3            3.000000         0.036019045      1083.228696780      -102.707938843      -102.671503888         2.404350996
         4            4.000000         0.068572039      2062.220145523      -102.744562719      -102.675592138         2.420286179
         5            5.000000         0.114385330      3439.998776941      -102.793422979      -102.678668239         2.437438965
         6            6.000000         0.174939406      5261.088501258      -102.846027176      -102.670760977         2.424257994
         7            7.000000         0.250213392      7524.861506930      -102.927311158      -102.676825690         2.424749851
         8            8.000000         0.340185157     10230.652221468      -103.028182486      -102.687785357         2.746381044
         9            9.000000         0.441997121     13292.522411631      -103.133344360      -102.691186161         2.968699932
        10           10.000000         0.556087688     16723.656569056      -103.254375706      -102.698143988         2.425273180
