#     Step Nr.          Time[fs]        Kin.[a.u.]          Temp[K]            Pot.[a.u.]        Cons Qty[a.u.]        UsedTime[s]
         0            0.000000         0.010380187       273.150000000      -101.980995692      -101.960235317         0.000000000
         1            1.000000         0.012425394       326.968707026      -102.417102065      -102.394297894         8.265358900
         2            2.000000         0.017744238       466.931695955      -102.641001786      -102.612882319         4.291918800
         3            3.000000         0.034423172       905.830421568      -102.698403241      -102.653614661         4.428131300
         4            4.000000         0.063985315      1683.745016193      -102.732037442      -102.657708286         4.310689700
         5            5.000000         0.106997790      2815.599118213      -102.778572554      -102.661269161         4.350732800
         6            6.000000         0.164943384      4340.411574915      -102.830912724      -102.655721383         4.534079300
         7            7.000000         0.238464201      6275.079096581      -102.911642181      -102.663004608         4.221017500
         8            8.000000         0.330426508      8695.026177177      -103.012670741      -102.672149662         4.634897000
         9            9.000000         0.441603133     11620.589483661      -103.131296354      -102.679649812         4.418965000
        10           10.000000         0.568089936     14949.033280036      -103.264815385      -102.686637552         4.264306700
