#     Step Nr.          Time[fs]        Kin.[a.u.]          Temp[K]            Pot.[a.u.]        Cons Qty[a.u.]        UsedTime[s]
         0            0.000000         0.005190094       273.150000000       -38.722147495       -38.710879355         0.000000000
         1            1.000000         0.007536877       396.659094567       -38.929850364       -38.916092769         9.559560700
         2            2.000000         0.014531907       764.801288367       -39.057878865       -39.036793643         4.578257900
         3            3.000000         0.027538902      1449.347866595       -39.079578841       -39.044964663         4.578813800
         4            4.000000         0.046405360      2442.272680490       -39.096434906       -39.042325105         4.768199300
         5            5.000000         0.072268504      3803.426925252       -39.135954047       -39.055292955         4.579626400
         6            6.000000         0.106843305      5623.067826077       -39.165906992       -39.049942126         4.527149300
         7            7.000000         0.150336247      7912.062565452       -39.207944941       -39.047754488         4.591436800
         8            8.000000         0.204833421     10780.200216738       -39.267317441       -39.051910924         4.607780100
         9            9.000000         0.273318657     14384.517110141       -39.338931259       -39.054409508         4.504573200
        10           10.000000         0.360328978     18963.792717198       -39.432239263       -39.060224930         4.802188100
