#     Step Nr.          Time[fs]        Kin.[a.u.]          Temp[K]            Pot.[a.u.]        Cons Qty[a.u.]        UsedTime[s]
         0            0.000000         0.003892570       273.150000000       -38.722147484       -38.716934453         0.000000000
         1            1.000000         0.004502833       315.973467273       -38.923791253       -38.918104339         6.435908079
         2            2.000000         0.008007455       561.900268421       -39.046997509       -39.037996998         2.954703093
         3            3.000000         0.017109391      1200.602619521       -39.067988429       -39.049996822         3.254323959
         4            4.000000         0.031550970      2213.999200188       -39.075986212       -39.043530288         2.458119869
         5            5.000000         0.051253210      3596.547605885       -39.107311254       -39.055012283         2.438767195
         6            6.000000         0.078164885      5484.997544031       -39.133714101       -39.054265170         2.435485840
         7            7.000000         0.112975140      7927.707755445       -39.169014536       -39.054453309         2.444579124
         8            8.000000         0.156510317     10982.664524803       -39.216903080       -39.058469377         2.442717075
         9            9.000000         0.210445871     14767.437967723       -39.267902671       -39.055200151         2.459851980
        10           10.000000         0.279927983     19643.146755142       -39.341520884       -39.059029527         2.759654999
