 DBCSR| Multiplication driver                                               BLAS
 DBCSR| Multrec recursion limit                                              512
 DBCSR| Multiplication stack size                                           1000
 DBCSR| Maximum elements for images                                    UNLIMITED
 DBCSR| Multiplicative factor virtual images                                   1
 DBCSR| Multiplication size stacks                                             3
 DBCSR| Number of 3D layers                                               SINGLE
 DBCSR| Use MPI memory allocation                                              T
 DBCSR| Use RMA algorithm                                                      F
 DBCSR| Use Communication thread                                               T
 DBCSR| Communication thread load                                             87


  **** **** ******  **  PROGRAM STARTED AT               2020-09-11 10:54:22.864
 ***** ** ***  *** **   PROGRAM STARTED ON                       LAPTOP-SAG0HDJD
 **    ****   ******    PROGRAM STARTED BY                                    rs
 ***** **    ** ** **   PROGRAM PROCESS ID                                   488
  **** **  *******  **  PROGRAM STARTED IN /mnt/c/Users/rstha/Documents/research
                                           /workflow/cp2kmdpy/cp2kmdpy/tests/dio
                                           xygen-nvt

 CP2K| version string:                                          CP2K version 5.1
 CP2K| source code revision number:                                    svn:18091
 CP2K| cp2kflags: libint fftw3 libxc parallel mpi3 scalapack libderiv_max_am1=5 
 CP2K|            libint_max_am=6
 CP2K| is freely available from                            https://www.cp2k.org/
 CP2K| Program compiled at                          Mon Jan 15 17:12:42 UTC 2018
 CP2K| Program compiled on                                       lgw01-amd64-018
 CP2K| Program compiled for                                Linux-x86_64-gfortran
 CP2K| Data directory path                                       /usr/share/cp2k
 CP2K| Input file name                                                  rand.inp

 GLOBAL| Force Environment number                                              1
 GLOBAL| Basis set file name                                        BASIS_MOLOPT
 GLOBAL| Potential file name                                      GTH_POTENTIALS
 GLOBAL| MM Potential file name                                     MM_POTENTIAL
 GLOBAL| Coordinate file name                                      __STD_INPUT__
 GLOBAL| Method name                                                        CP2K
 GLOBAL| Project name                                                     O2_opt
 GLOBAL| Preferred FFT library                                             FFTW3
 GLOBAL| Preferred diagonalization lib.                                       SL
 GLOBAL| Run type                                                        GEO_OPT
 GLOBAL| All-to-all communication in single precision                          F
 GLOBAL| FFTs using library dependent lengths                                  F
 GLOBAL| Global print level                                                  LOW
 GLOBAL| Total number of message passing processes                             1
 GLOBAL| Number of threads for this process                                    1
 GLOBAL| This output is from process                                           0
 GLOBAL| CPU model name :  Intel(R) Core(TM) i5-8250U CPU @ 1.60GHz

 MEMORY| system memory details [Kb]
 MEMORY|                        rank 0           min           max       average
 MEMORY| MemTotal              8262884       8262884       8262884       8262884
 MEMORY| MemFree               2200924       2200924       2200924       2200924
 MEMORY| Buffers                 34032         34032         34032         34032
 MEMORY| Cached                 188576        188576        188576        188576
 MEMORY| Slab                    13868         13868         13868         13868
 MEMORY| SReclaimable             6744          6744          6744          6744
 MEMORY| MemLikelyFree         2430276       2430276       2430276       2430276


 GENERATE|  Preliminary Number of Bonds generated:                             0
 GENERATE|  Achieved consistency in connectivity generation.

 *******************************************************************************
 *******************************************************************************
 **                                                                           **
 **     #####                         ##              ##                      **
 **    ##   ##            ##          ##              ##                      **
 **   ##     ##                       ##            ######                    **
 **   ##     ##  ##   ##  ##   #####  ##  ##   ####   ##    #####    #####    **
 **   ##     ##  ##   ##  ##  ##      ## ##   ##      ##   ##   ##  ##   ##   **
 **   ##  ## ##  ##   ##  ##  ##      ####     ###    ##   ######   ######    **
 **    ##  ###   ##   ##  ##  ##      ## ##      ##   ##   ##       ##        **
 **     #######   #####   ##   #####  ##  ##  ####    ##    #####   ##        **
 **           ##                                                    ##        **
 **                                                                           **
 **                                                ... make the atoms dance   **
 **                                                                           **
 **            Copyright (C) by CP2K developers group (2000 - 2017)           **
 **                                                                           **
 *******************************************************************************


 SCF PARAMETERS         Density guess:                                    ATOMIC
                        --------------------------------------------------------
                        max_scf:                                               6
                        max_scf_history:                                       0
                        max_diis:                                              4
                        --------------------------------------------------------
                        eps_scf:                                        1.00E-06
                        eps_scf_history:                                0.00E+00
                        eps_diis:                                       1.00E-01
                        eps_eigval:                                     1.00E-05
                        --------------------------------------------------------
                        level_shift [a.u.]:                                 0.00
                        --------------------------------------------------------
                        Mixing method:                           DIRECT_P_MIXING
                        --------------------------------------------------------
                        No outer SCF

 *******************************************************************************
 ***                     STARTING GEOMETRY OPTIMIZATION                      ***
 ***                                   BFGS                                  ***
 *******************************************************************************

 Number of electrons:                                                         12
 Number of occupied orbitals:                                                  6
 Number of molecular orbitals:                                                 6

 Number of orbital functions:                                                 58
 Number of independent orbital functions:                                     58

 Extrapolation method: initial_guess


 SCF WAVEFUNCTION OPTIMIZATION

  Step     Update method      Time    Convergence         Total energy    Change
  ------------------------------------------------------------------------------
     1 P_Mix/Diag. 0.40E+00    1.1     0.72953921       -31.7511493215 -3.18E+01
     2 P_Mix/Diag. 0.40E+00    1.1     0.99546152       -31.7828800021 -3.17E-02
     3 P_Mix/Diag. 0.40E+00    1.1     0.73859982       -31.8048870543 -2.20E-02
     4 P_Mix/Diag. 0.40E+00    1.2     0.83394702       -31.8157547933 -1.09E-02
     5 P_Mix/Diag. 0.40E+00    1.2     0.74806082       -31.8233771571 -7.62E-03
     6 P_Mix/Diag. 0.40E+00    1.1     0.84950900       -31.8271906073 -3.81E-03

  Leaving inner SCF loop after reaching     6 steps.


  Electronic density on regular grids:        -12.0000002204       -0.0000002204
  Core density on regular grids:               11.9999997703       -0.0000002297
  Total charge density on r-space grids:       -0.0000004501
  Total charge density g-space grids:          -0.0000004501

  Overlap energy of the core charge distribution:               0.00000000000000
  Self energy of the core charge distribution:                -83.05241415799775
  Core Hamiltonian energy:                                     22.69971599050795
  Hartree energy:                                              35.14222779557866
  Exchange-correlation energy:                                 -6.61671294623837
  Dispersion energy:                                           -0.00000728911942

  Total energy:                                               -31.82719060726893

 *** WARNING in qs_scf.F:539 :: SCF run NOT converged ***


 ENERGY| Total FORCE_EVAL ( QS ) energy (a.u.):              -31.806160471555653


 --------  Informations at step =     0 ------------
  Optimization Method        =                 BFGS
  Total Energy               =       -31.8061604716
  Used time                  =                8.444
 ---------------------------------------------------

 --------------------------
 OPTIMIZATION STEP:      1
 --------------------------

 Number of electrons:                                                         12
 Number of occupied orbitals:                                                  6
 Number of molecular orbitals:                                                 6

 Number of orbital functions:                                                 58
 Number of independent orbital functions:                                     58

 Extrapolation method: ASPC


 SCF WAVEFUNCTION OPTIMIZATION

  Step     Update method      Time    Convergence         Total energy    Change
  ------------------------------------------------------------------------------
     1 P_Mix/Diag. 0.40E+00    1.0     1.51405808       -31.8386104886 -3.18E+01
     2 P_Mix/Diag. 0.40E+00    1.1     1.38982726       -31.8382623830  3.48E-04
     3 P_Mix/Diag. 0.40E+00    1.1     1.52252211       -31.8057271476  3.25E-02
     4 P_Mix/Diag. 0.40E+00    1.2     1.29386599       -31.7692858163  3.64E-02
     5 P_Mix/Diag. 0.40E+00    1.4     1.43265693       -31.7373207341  3.20E-02
     6 P_Mix/Diag. 0.40E+00    1.3     1.83041037       -31.7098792874  2.74E-02

  Leaving inner SCF loop after reaching     6 steps.


  Electronic density on regular grids:        -11.9999999584        0.0000000416
  Core density on regular grids:               11.9999997745       -0.0000002255
  Total charge density on r-space grids:       -0.0000001839
  Total charge density g-space grids:          -0.0000001839

  Overlap energy of the core charge distribution:               0.00000000000745
  Self energy of the core charge distribution:                -83.05241415799775
  Core Hamiltonian energy:                                     23.39667280744129
  Hartree energy:                                              34.70315482301731
  Exchange-correlation energy:                                 -6.75728724503978
  Dispersion energy:                                           -0.00000551482288

  Total energy:                                               -31.70987928739436

 *** WARNING in qs_scf.F:539 :: SCF run NOT converged ***


 ENERGY| Total FORCE_EVAL ( QS ) energy (a.u.):              -30.958013116173099


 --------  Informations at step =     1 ------------
  Optimization Method        =                 BFGS
  Total Energy               =       -30.9580131162
  Real energy change         =         0.8481473554
  Predicted change in energy =        -0.0271101511
  Scaling factor             =         0.0000000000
  Step size                  =         0.3193425998
  Trust radius               =         0.4724315332
  Decrease in energy         =                   NO
  Used time                  =                8.693

  Convergence check :
  Max. step size             =         0.3193425998
  Conv. limit for step size  =         0.0010000000
  Convergence in step size   =                   NO
  RMS step size              =         0.1379046280
  Conv. limit for RMS step   =         0.0015000000
  Convergence in RMS step    =                   NO
  Max. gradient              =         0.1869909884
  Conv. limit for gradients  =         0.0010000000
  Conv. for gradients        =                   NO
  RMS gradient               =         0.0818249685
  Conv. limit for RMS grad.  =         0.0003000000
  Conv. for gradients        =                   NO
 ---------------------------------------------------

 *** MAXIMUM NUMBER OF OPTIMIZATION STEPS REACHED ***
 ***        EXITING GEOMETRY OPTIMIZATION         ***

 -------------------------------------------------------------------------------
 -                                                                             -
 -                                DBCSR STATISTICS                             -
 -                                                                             -
 -------------------------------------------------------------------------------
 COUNTER                                    TOTAL       BLAS       SMM       ACC
 flops    29 x    29 x     6               454140     100.0%      0.0%      0.0%
 flops inhomo. stacks                           0       0.0%      0.0%      0.0%
 flops total                       454.140000E+03     100.0%      0.0%      0.0%
 flops max/rank                    454.140000E+03     100.0%      0.0%      0.0%
 matmuls inhomo. stacks                         0       0.0%      0.0%      0.0%
 matmuls total                                 45     100.0%      0.0%      0.0%
 number of processed stacks                    15     100.0%      0.0%      0.0%
 average stack size                                     3.0       0.0       0.0
 marketing flops                   605.520000E+03
 -------------------------------------------------------------------------------
 # multiplications                             15
 max memory usage/rank             400.592896E+06
 # max total images/rank                        1
 # max 3D layers                                1
 # MPI messages exchanged                       0
 MPI messages size (bytes):
  total size                         0.000000E+00
  min size                           0.000000E+00
  max size                           0.000000E+00
  average size                       0.000000E+00
 MPI breakdown and total messages size (bytes):
             size <=      128                   0                        0
       128 < size <=     8192                   0                        0
      8192 < size <=    32768                   0                        0
     32768 < size <=   131072                   0                        0
    131072 < size <=  4194304                   0                        0
   4194304 < size <= 16777216                   0                        0
  16777216 < size                               0                        0
 -------------------------------------------------------------------------------

 MEMORY| Estimated peak process memory [MiB]                                 383

 -------------------------------------------------------------------------------
 -                                                                             -
 -                         MESSAGE PASSING PERFORMANCE                         -
 -                                                                             -
 -------------------------------------------------------------------------------

 ROUTINE             CALLS      AVE VOLUME [Bytes]
 MP_Group               29
 MP_Bcast               18                  71971.
 MP_Allreduce          214                     17.
 MP_Sync                 4
 MP_Alltoall           437                  12334.
 MP_Wait               360
 MP_ISend               60                     40.
 MP_IRecv               60                     40.
 MP_Memory             600
 -------------------------------------------------------------------------------


 -------------------------------------------------------------------------------
 -                                                                             -
 -                           R E F E R E N C E S                               -
 -                                                                             -
 -------------------------------------------------------------------------------
 
 CP2K version 5.1, the CP2K developers group (2017).
 CP2K is freely available from https://www.cp2k.org/ .

 Schuett, Ole; Messmer, Peter; Hutter, Juerg; VandeVondele, Joost. 
 Electronic Structure Calculations on Graphics Processing Units, John Wiley & Sons, Ltd, 173-190 (2016). 
 GPU-Accelerated Sparse Matrix-Matrix Multiplication for Linear Scaling Density Functional Theory.
 http://dx.doi.org/10.1002/9781118670712.ch8


 Borstnik, U; VandeVondele, J; Weber, V; Hutter, J. 
 PARALLEL COMPUTING, 40 (5-6), 47-58 (2014). 
 Sparse matrix multiplication: The distributed block-compressed sparse
 row library.
 http://dx.doi.org/10.1016/j.parco.2014.03.012


 Hutter, J; Iannuzzi, M; Schiffmann, F; VandeVondele, J. 
 WILEY INTERDISCIPLINARY REVIEWS-COMPUTATIONAL MOLECULAR SCIENCE, 4 (1), 15-25 (2014). 
 CP2K: atomistic simulations of condensed matter systems.
 http://dx.doi.org/10.1002/wcms.1159


 Grimme, S; Ehrlich, S; Goerigk, L. 
 JOURNAL OF COMPUTATIONAL CHEMISTRY, 32, 1456 (2011). 
 Effect of the damping function in dispersion corrected density functional theory.
 http://dx.doi.org/10.1002/jcc.21759


 Grimme, S; Antony, J; Ehrlich, S; Krieg, H. 
 JOURNAL OF CHEMICAL PHYSICS, 132 (15), 154104 (2010). 
 A consistent and accurate ab initio parametrization of density
 functional dispersion correction (DFT-D) for the 94 elements H-Pu.
 http://dx.doi.org/10.1063/1.3382344


 VandeVondele, J; Hutter, J. 
 JOURNAL OF CHEMICAL PHYSICS, 127 (11), 114105 (2007). 
 Gaussian basis sets for accurate calculations on molecular systems in
 gas and condensed phases.
 http://dx.doi.org/10.1063/1.2770708


 Krack, M. 
 THEORETICAL CHEMISTRY ACCOUNTS, 114 (1-3), 145-152 (2005). 
 Pseudopotentials for H to Kr optimized for gradient-corrected
 exchange-correlation functionals.
 http://dx.doi.org/10.1007/s00214-005-0655-y


 VandeVondele, J; Krack, M; Mohamed, F; Parrinello, M; Chassaing, T;
 Hutter, J. COMPUTER PHYSICS COMMUNICATIONS, 167 (2), 103-128 (2005). 
 QUICKSTEP: Fast and accurate density functional calculations using a
 mixed Gaussian and plane waves approach.
 http://dx.doi.org/10.1016/j.cpc.2004.12.014


 Frigo, M; Johnson, SG. 
 PROCEEDINGS OF THE IEEE, 93 (2), 216-231 (2005). 
 The design and implementation of FFTW3.
 http://dx.doi.org/10.1109/JPROC.2004.840301


 Kolafa, J. 
 JOURNAL OF COMPUTATIONAL CHEMISTRY, 25 (3), 335-342 (2004). 
 Time-reversible always stable predictor-corrector method for molecular dynamics of polarizable molecules.
 http://dx.doi.org/10.1002/jcc.10385


 Hartwigsen, C; Goedecker, S; Hutter, J. 
 PHYSICAL REVIEW B, 58 (7), 3641-3662 (1998). 
 Relativistic separable dual-space Gaussian pseudopotentials from H to Rn.
 http://dx.doi.org/10.1103/PhysRevB.58.3641


 Lippert, G; Hutter, J; Parrinello, M. 
 MOLECULAR PHYSICS, 92 (3), 477-487 (1997). 
 A hybrid Gaussian and plane wave density functional scheme.
 http://dx.doi.org/10.1080/002689797170220


 Perdew, JP; Burke, K; Ernzerhof, M. 
 PHYSICAL REVIEW LETTERS, 77 (18), 3865-3868 (1996). 
 Generalized gradient approximation made simple.
 http://dx.doi.org/10.1103/PhysRevLett.77.3865


 Goedecker, S; Teter, M; Hutter, J. 
 PHYSICAL REVIEW B, 54 (3), 1703-1710 (1996). 
 Separable dual-space Gaussian pseudopotentials.
 http://dx.doi.org/10.1103/PhysRevB.54.1703


 -------------------------------------------------------------------------------
 -                                                                             -
 -                                T I M I N G                                  -
 -                                                                             -
 -------------------------------------------------------------------------------
 SUBROUTINE                       CALLS  ASD         SELF TIME        TOTAL TIME
                                MAXIMUM       AVERAGE  MAXIMUM  AVERAGE  MAXIMUM
 CP2K                                 1  1.0    0.010    0.010   17.730   17.730
 cp_geo_opt                           1  2.0    0.000    0.000   17.153   17.153
 geoopt_bfgs                          1  3.0    0.001    0.001   17.153   17.153
 cp_eval_at                           2  4.0    0.000    0.000   17.121   17.121
 qs_forces                            2  5.0    0.000    0.000   17.120   17.120
 qs_energies                          2  6.0    0.000    0.000   14.951   14.951
 rebuild_ks_matrix                   14  9.6    0.000    0.000   14.331   14.331
 qs_ks_build_kohn_sham_matrix        14 10.6    0.002    0.002   14.331   14.331
 scf_env_do_scf                       2  7.0    0.000    0.000   14.242   14.242
 scf_env_do_scf_inner_loop           12  8.0    0.001    0.001   14.242   14.242
 qs_ks_update_qs_env                 12  9.0    0.000    0.000   12.277   12.277
 qs_vxc_create                       14 11.6    0.000    0.000   11.392   11.392
 xc_vxc_pw_create                    14 12.6    0.200    0.200   11.392   11.392
 pw_transfer                        268 13.3    0.023    0.023    9.145    9.145
 fft_wrap_pw1pw2                    240 14.4    0.003    0.003    8.935    8.935
 fft_wrap_pw1pw2_150                156 15.4    0.800    0.800    8.697    8.697
 xc_rho_set_and_dset_create          14 13.6    0.070    0.070    7.250    7.250
 fft3d_s                            241 16.3    5.438    5.438    5.470    5.470
 xc_functional_eval                  14 14.6    0.000    0.000    4.335    4.335
 pbe_lda_eval                        14 15.6    4.335    4.335    4.335    4.335
 qs_rho_update_rho                   14  9.1    0.000    0.000    2.339    2.339
 calculate_rho_elec                  14 10.1    0.255    0.255    2.339    2.339
 qs_ks_update_qs_env_forces           2  6.0    0.000    0.000    2.054    2.054
 density_rs2pw                       14 11.1    0.001    0.001    2.049    2.049
 sum_up_and_integrate                14 11.6    0.040    0.040    1.466    1.466
 integrate_v_rspace                  14 12.6    0.352    0.352    1.427    1.427
 pw_gather_s                        114 15.9    1.393    1.393    1.393    1.393
 pw_scatter_s                       126 16.8    1.260    1.260    1.260    1.260
 potential_pw2rs                     14 13.6    0.007    0.007    1.073    1.073
 pw_derive                           84 14.1    0.942    0.942    0.942    0.942
 pw_copy                            154 14.1    0.630    0.630    0.630    0.630
 pw_poisson_solve                    14 11.6    0.350    0.350    0.565    0.565
 qs_init_subsys                       1  2.0    0.001    0.001    0.506    0.506
 init_scf_run                         2  7.0    0.000    0.000    0.447    0.447
 scf_env_initial_rho_setup            2  8.0    0.000    0.000    0.440    0.440
 qs_env_setup                         1  3.0    0.000    0.000    0.437    0.437
 qs_env_rebuild_pw_env                5  6.0    0.000    0.000    0.437    0.437
 pw_env_rebuild                       1  5.0    0.000    0.000    0.437    0.437
 pw_grid_setup                        4  6.0    0.000    0.000    0.415    0.415
 pw_grid_setup_internal               4  7.0    0.012    0.012    0.415    0.415
 pw_axpy                            112 12.6    0.409    0.409    0.409    0.409
 -------------------------------------------------------------------------------

 The number of warnings for this run is : 2
 
 -------------------------------------------------------------------------------
  **** **** ******  **  PROGRAM ENDED AT                 2020-09-11 10:54:41.745
 ***** ** ***  *** **   PROGRAM RAN ON                           LAPTOP-SAG0HDJD
 **    ****   ******    PROGRAM RAN BY                                        rs
 ***** **    ** ** **   PROGRAM PROCESS ID                                   488
  **** **  *******  **  PROGRAM STOPPED IN /mnt/c/Users/rstha/Documents/research
                                           /workflow/cp2kmdpy/cp2kmdpy/tests/dio
                                           xygen-nvt
 DBCSR| Multiplication driver                                               BLAS
 DBCSR| Multrec recursion limit                                              512
 DBCSR| Multiplication stack size                                           1000
 DBCSR| Maximum elements for images                                    UNLIMITED
 DBCSR| Multiplicative factor virtual images                                   1
 DBCSR| Multiplication size stacks                                             3
 DBCSR| Number of 3D layers                                               SINGLE
 DBCSR| Use MPI memory allocation                                              T
 DBCSR| Use RMA algorithm                                                      F
 DBCSR| Use Communication thread                                               T
 DBCSR| Communication thread load                                             87


  **** **** ******  **  PROGRAM STARTED AT               2020-09-11 10:54:48.460
 ***** ** ***  *** **   PROGRAM STARTED ON                       LAPTOP-SAG0HDJD
 **    ****   ******    PROGRAM STARTED BY                                    rs
 ***** **    ** ** **   PROGRAM PROCESS ID                                   499
  **** **  *******  **  PROGRAM STARTED IN /mnt/c/Users/rstha/Documents/research
                                           /workflow/cp2kmdpy/cp2kmdpy/tests/dio
                                           xygen-nvt

 CP2K| version string:                                          CP2K version 5.1
 CP2K| source code revision number:                                    svn:18091
 CP2K| cp2kflags: libint fftw3 libxc parallel mpi3 scalapack libderiv_max_am1=5 
 CP2K|            libint_max_am=6
 CP2K| is freely available from                            https://www.cp2k.org/
 CP2K| Program compiled at                          Mon Jan 15 17:12:42 UTC 2018
 CP2K| Program compiled on                                       lgw01-amd64-018
 CP2K| Program compiled for                                Linux-x86_64-gfortran
 CP2K| Data directory path                                       /usr/share/cp2k
 CP2K| Input file name                                                  rand.inp

 GLOBAL| Force Environment number                                              1
 GLOBAL| Basis set file name                                        BASIS_MOLOPT
 GLOBAL| Potential file name                                      GTH_POTENTIALS
 GLOBAL| MM Potential file name                                     MM_POTENTIAL
 GLOBAL| Coordinate file name                                      __STD_INPUT__
 GLOBAL| Method name                                                        CP2K
 GLOBAL| Project name                                                     O2_opt
 GLOBAL| Preferred FFT library                                             FFTW3
 GLOBAL| Preferred diagonalization lib.                                       SL
 GLOBAL| Run type                                                        GEO_OPT
 GLOBAL| All-to-all communication in single precision                          F
 GLOBAL| FFTs using library dependent lengths                                  F
 GLOBAL| Global print level                                                  LOW
 GLOBAL| Total number of message passing processes                             1
 GLOBAL| Number of threads for this process                                    1
 GLOBAL| This output is from process                                           0
 GLOBAL| CPU model name :  Intel(R) Core(TM) i5-8250U CPU @ 1.60GHz

 MEMORY| system memory details [Kb]
 MEMORY|                        rank 0           min           max       average
 MEMORY| MemTotal              8262884       8262884       8262884       8262884
 MEMORY| MemFree               2216248       2216248       2216248       2216248
 MEMORY| Buffers                 34032         34032         34032         34032
 MEMORY| Cached                 188576        188576        188576        188576
 MEMORY| Slab                    13868         13868         13868         13868
 MEMORY| SReclaimable             6744          6744          6744          6744
 MEMORY| MemLikelyFree         2445600       2445600       2445600       2445600


 GENERATE|  Preliminary Number of Bonds generated:                             0
 GENERATE|  Achieved consistency in connectivity generation.

 *******************************************************************************
 *******************************************************************************
 **                                                                           **
 **     #####                         ##              ##                      **
 **    ##   ##            ##          ##              ##                      **
 **   ##     ##                       ##            ######                    **
 **   ##     ##  ##   ##  ##   #####  ##  ##   ####   ##    #####    #####    **
 **   ##     ##  ##   ##  ##  ##      ## ##   ##      ##   ##   ##  ##   ##   **
 **   ##  ## ##  ##   ##  ##  ##      ####     ###    ##   ######   ######    **
 **    ##  ###   ##   ##  ##  ##      ## ##      ##   ##   ##       ##        **
 **     #######   #####   ##   #####  ##  ##  ####    ##    #####   ##        **
 **           ##                                                    ##        **
 **                                                                           **
 **                                                ... make the atoms dance   **
 **                                                                           **
 **            Copyright (C) by CP2K developers group (2000 - 2017)           **
 **                                                                           **
 *******************************************************************************


 SCF PARAMETERS         Density guess:                                    ATOMIC
                        --------------------------------------------------------
                        max_scf:                                               6
                        max_scf_history:                                       0
                        max_diis:                                              4
                        --------------------------------------------------------
                        eps_scf:                                        1.00E-06
                        eps_scf_history:                                0.00E+00
                        eps_diis:                                       1.00E-01
                        eps_eigval:                                     1.00E-05
                        --------------------------------------------------------
                        level_shift [a.u.]:                                 0.00
                        --------------------------------------------------------
                        Mixing method:                           DIRECT_P_MIXING
                        --------------------------------------------------------
                        No outer SCF

 *******************************************************************************
 ***                     STARTING GEOMETRY OPTIMIZATION                      ***
 ***                                   BFGS                                  ***
 *******************************************************************************

 Number of electrons:                                                         12
 Number of occupied orbitals:                                                  6
 Number of molecular orbitals:                                                 6

 Number of orbital functions:                                                 26
 Number of independent orbital functions:                                     26

 Extrapolation method: initial_guess


 SCF WAVEFUNCTION OPTIMIZATION

  Step     Update method      Time    Convergence         Total energy    Change
  ------------------------------------------------------------------------------

 *** WARNING in pw/ps_wavelet_methods.F:236 :: Density non-zero on the ***
 *** edges of the unit cell: wrong results in WAVELET solver           ***

     1 P_Mix/Diag. 0.40E+00    2.2     1.30219461       -36.4199512809 -3.64E+01

 *** WARNING in pw/ps_wavelet_methods.F:236 :: Density non-zero on the ***
 *** edges of the unit cell: wrong results in WAVELET solver           ***

     2 P_Mix/Diag. 0.40E+00    1.4     0.92381058       -36.8777672499 -4.58E-01

 *** WARNING in pw/ps_wavelet_methods.F:236 :: Density non-zero on the ***
 *** edges of the unit cell: wrong results in WAVELET solver           ***

     3 P_Mix/Diag. 0.40E+00    1.4     0.65945113       -37.1121873337 -2.34E-01

 *** WARNING in pw/ps_wavelet_methods.F:236 :: Density non-zero on the ***
 *** edges of the unit cell: wrong results in WAVELET solver           ***

     4 P_Mix/Diag. 0.40E+00    1.5     0.67692800       -37.2577998187 -1.46E-01

 *** WARNING in pw/ps_wavelet_methods.F:236 :: Density non-zero on the ***
 *** edges of the unit cell: wrong results in WAVELET solver           ***

     5 P_Mix/Diag. 0.40E+00    1.7     0.42388049       -37.3466614565 -8.89E-02

 *** WARNING in pw/ps_wavelet_methods.F:236 :: Density non-zero on the ***
 *** edges of the unit cell: wrong results in WAVELET solver           ***

     6 P_Mix/Diag. 0.40E+00    1.4     0.48922558       -37.4066941467 -6.00E-02

  Leaving inner SCF loop after reaching     6 steps.


  Electronic density on regular grids:        -12.0000002750       -0.0000002750
  Core density on regular grids:               11.9999997540       -0.0000002460
  Total charge density on r-space grids:       -0.0000005210
  Total charge density g-space grids:          -0.0000005210

  Overlap energy of the core charge distribution:               0.00000000000745
  Self energy of the core charge distribution:                -83.05241415799775
  Core Hamiltonian energy:                                     20.64138875313125
  Hartree energy:                                              31.31966838902552
  Exchange-correlation energy:                                 -6.31533618757670
  Dispersion energy:                                           -0.00000094327286

  Total energy:                                               -37.40669414668309

 *** WARNING in qs_scf.F:539 :: SCF run NOT converged ***


 *** WARNING in pw/ps_wavelet_methods.F:236 :: Density non-zero on the ***
 *** edges of the unit cell: wrong results in WAVELET solver           ***


 ENERGY| Total FORCE_EVAL ( QS ) energy (a.u.):              -37.369310368012876


 --------  Informations at step =     0 ------------
  Optimization Method        =                 BFGS
  Total Energy               =       -37.3693103680
  Used time                  =               11.280
 ---------------------------------------------------

 --------------------------
 OPTIMIZATION STEP:      1
 --------------------------

  Step is scaled; Scaling factor =  0.01584

 Number of electrons:                                                         12
 Number of occupied orbitals:                                                  6
 Number of molecular orbitals:                                                 6

 Number of orbital functions:                                                 26
 Number of independent orbital functions:                                     26

 Extrapolation method: ASPC


 SCF WAVEFUNCTION OPTIMIZATION

  Step     Update method      Time    Convergence         Total energy    Change
  ------------------------------------------------------------------------------

 *** WARNING in pw/ps_wavelet_methods.F:236 :: Density non-zero on the ***
 *** edges of the unit cell: wrong results in WAVELET solver           ***

     1 P_Mix/Diag. 0.40E+00    1.2     2.00580194       -28.0967286258 -2.81E+01

 *** WARNING in pw/ps_wavelet_methods.F:236 :: Density non-zero on the ***
 *** edges of the unit cell: wrong results in WAVELET solver           ***

     2 P_Mix/Diag. 0.40E+00    1.6     1.44540090       -28.4059997656 -3.09E-01

 *** WARNING in pw/ps_wavelet_methods.F:236 :: Density non-zero on the ***
 *** edges of the unit cell: wrong results in WAVELET solver           ***

     3 P_Mix/Diag. 0.40E+00    1.4     1.31155346       -29.5280775022 -1.12E+00

 *** WARNING in pw/ps_wavelet_methods.F:236 :: Density non-zero on the ***
 *** edges of the unit cell: wrong results in WAVELET solver           ***

     4 P_Mix/Diag. 0.40E+00    1.4     0.71758240       -30.2089189622 -6.81E-01

 *** WARNING in pw/ps_wavelet_methods.F:236 :: Density non-zero on the ***
 *** edges of the unit cell: wrong results in WAVELET solver           ***

     5 P_Mix/Diag. 0.40E+00    1.5     0.83503014       -30.5752592729 -3.66E-01

 *** WARNING in pw/ps_wavelet_methods.F:236 :: Density non-zero on the ***
 *** edges of the unit cell: wrong results in WAVELET solver           ***

     6 P_Mix/Diag. 0.40E+00    1.5     0.48091921       -30.8362493095 -2.61E-01

  Leaving inner SCF loop after reaching     6 steps.


  Electronic density on regular grids:        -12.0000001858       -0.0000001858
  Core density on regular grids:               11.9999997602       -0.0000002398
  Total charge density on r-space grids:       -0.0000004256
  Total charge density g-space grids:          -0.0000004256

  Overlap energy of the core charge distribution:               0.00000000000000
  Self energy of the core charge distribution:                -83.05241415799775
  Core Hamiltonian energy:                                     23.79733293432167
  Hartree energy:                                              35.15114070964639
  Exchange-correlation energy:                                 -6.73230495354984
  Dispersion energy:                                           -0.00000384192870

  Total energy:                                               -30.83624930950823

 *** WARNING in qs_scf.F:539 :: SCF run NOT converged ***


 *** WARNING in pw/ps_wavelet_methods.F:236 :: Density non-zero on the ***
 *** edges of the unit cell: wrong results in WAVELET solver           ***


 ENERGY| Total FORCE_EVAL ( QS ) energy (a.u.):              -31.117604807960447


 --------  Informations at step =     1 ------------
  Optimization Method        =                 BFGS
  Total Energy               =       -31.1176048080
  Real energy change         =         6.2517055601
  Predicted change in energy =       -10.8637409509
  Scaling factor             =         0.0158439790
  Step size                  =         0.4724315332
  Trust radius               =         0.4724315332
  Decrease in energy         =                   NO
  Used time                  =               10.196

  Convergence check :
  Max. step size             =         0.4724315332
  Conv. limit for step size  =         0.0010000000
  Convergence in step size   =                   NO
  RMS step size              =         0.2121231833
  Conv. limit for RMS step   =         0.0015000000
  Convergence in RMS step    =                   NO
  Max. gradient              =        11.2755075835
  Conv. limit for gradients  =         0.0010000000
  Conv. for gradients        =                   NO
  RMS gradient               =         4.6106852965
  Conv. limit for RMS grad.  =         0.0003000000
  Conv. for gradients        =                   NO
 ---------------------------------------------------

 *** MAXIMUM NUMBER OF OPTIMIZATION STEPS REACHED ***
 ***        EXITING GEOMETRY OPTIMIZATION         ***

 -------------------------------------------------------------------------------
 -                                                                             -
 -                                DBCSR STATISTICS                             -
 -                                                                             -
 -------------------------------------------------------------------------------
 COUNTER                                    TOTAL       BLAS       SMM       ACC
 flops    13 x    13 x     6                91260     100.0%      0.0%      0.0%
 flops inhomo. stacks                           0       0.0%      0.0%      0.0%
 flops total                        91.260000E+03     100.0%      0.0%      0.0%
 flops max/rank                     91.260000E+03     100.0%      0.0%      0.0%
 matmuls inhomo. stacks                         0       0.0%      0.0%      0.0%
 matmuls total                                 45     100.0%      0.0%      0.0%
 number of processed stacks                    15     100.0%      0.0%      0.0%
 average stack size                                     3.0       0.0       0.0
 marketing flops                   121.680000E+03
 -------------------------------------------------------------------------------
 # multiplications                             15
 max memory usage/rank             401.293312E+06
 # max total images/rank                        1
 # max 3D layers                                1
 # MPI messages exchanged                       0
 MPI messages size (bytes):
  total size                         0.000000E+00
  min size                           0.000000E+00
  max size                           0.000000E+00
  average size                       0.000000E+00
 MPI breakdown and total messages size (bytes):
             size <=      128                   0                        0
       128 < size <=     8192                   0                        0
      8192 < size <=    32768                   0                        0
     32768 < size <=   131072                   0                        0
    131072 < size <=  4194304                   0                        0
   4194304 < size <= 16777216                   0                        0
  16777216 < size                               0                        0
 -------------------------------------------------------------------------------

 MEMORY| Estimated peak process memory [MiB]                                 383

 -------------------------------------------------------------------------------
 -                                                                             -
 -                         MESSAGE PASSING PERFORMANCE                         -
 -                                                                             -
 -------------------------------------------------------------------------------

 ROUTINE             CALLS      AVE VOLUME [Bytes]
 MP_Group               29
 MP_Bcast               18                  71971.
 MP_Allreduce          214                     17.
 MP_Sync                 4
 MP_Alltoall           465                1216113.
 MP_Wait               360
 MP_ISend               60                     40.
 MP_IRecv               60                     40.
 MP_Memory             600
 -------------------------------------------------------------------------------


 -------------------------------------------------------------------------------
 -                                                                             -
 -                           R E F E R E N C E S                               -
 -                                                                             -
 -------------------------------------------------------------------------------
 
 CP2K version 5.1, the CP2K developers group (2017).
 CP2K is freely available from https://www.cp2k.org/ .

 Schuett, Ole; Messmer, Peter; Hutter, Juerg; VandeVondele, Joost. 
 Electronic Structure Calculations on Graphics Processing Units, John Wiley & Sons, Ltd, 173-190 (2016). 
 GPU-Accelerated Sparse Matrix-Matrix Multiplication for Linear Scaling Density Functional Theory.
 http://dx.doi.org/10.1002/9781118670712.ch8


 Borstnik, U; VandeVondele, J; Weber, V; Hutter, J. 
 PARALLEL COMPUTING, 40 (5-6), 47-58 (2014). 
 Sparse matrix multiplication: The distributed block-compressed sparse
 row library.
 http://dx.doi.org/10.1016/j.parco.2014.03.012


 Hutter, J; Iannuzzi, M; Schiffmann, F; VandeVondele, J. 
 WILEY INTERDISCIPLINARY REVIEWS-COMPUTATIONAL MOLECULAR SCIENCE, 4 (1), 15-25 (2014). 
 CP2K: atomistic simulations of condensed matter systems.
 http://dx.doi.org/10.1002/wcms.1159


 Grimme, S; Ehrlich, S; Goerigk, L. 
 JOURNAL OF COMPUTATIONAL CHEMISTRY, 32, 1456 (2011). 
 Effect of the damping function in dispersion corrected density functional theory.
 http://dx.doi.org/10.1002/jcc.21759


 Grimme, S; Antony, J; Ehrlich, S; Krieg, H. 
 JOURNAL OF CHEMICAL PHYSICS, 132 (15), 154104 (2010). 
 A consistent and accurate ab initio parametrization of density
 functional dispersion correction (DFT-D) for the 94 elements H-Pu.
 http://dx.doi.org/10.1063/1.3382344


 VandeVondele, J; Hutter, J. 
 JOURNAL OF CHEMICAL PHYSICS, 127 (11), 114105 (2007). 
 Gaussian basis sets for accurate calculations on molecular systems in
 gas and condensed phases.
 http://dx.doi.org/10.1063/1.2770708


 Genovese, L; Deutsch, T; Goedecker, S. 
 JOURNAL OF CHEMICAL PHYSICS, 127 (5), 054704 (2007). 
 Efficient and accurate three-dimensional Poisson solver for surface
 problems.
 http://dx.doi.org/10.1063/1.2754685


 Genovese, L; Deutsch, T; Neelov, A; Goedecker, S; Beylkin, G. 
 JOURNAL OF CHEMICAL PHYSICS, 125 (7), 074105 (2006). 
 Efficient solution of Poisson's equation with free boundary conditions.
 http://dx.doi.org/10.1063/1.2335442


 Krack, M. 
 THEORETICAL CHEMISTRY ACCOUNTS, 114 (1-3), 145-152 (2005). 
 Pseudopotentials for H to Kr optimized for gradient-corrected
 exchange-correlation functionals.
 http://dx.doi.org/10.1007/s00214-005-0655-y


 VandeVondele, J; Krack, M; Mohamed, F; Parrinello, M; Chassaing, T;
 Hutter, J. COMPUTER PHYSICS COMMUNICATIONS, 167 (2), 103-128 (2005). 
 QUICKSTEP: Fast and accurate density functional calculations using a
 mixed Gaussian and plane waves approach.
 http://dx.doi.org/10.1016/j.cpc.2004.12.014


 Frigo, M; Johnson, SG. 
 PROCEEDINGS OF THE IEEE, 93 (2), 216-231 (2005). 
 The design and implementation of FFTW3.
 http://dx.doi.org/10.1109/JPROC.2004.840301


 Kolafa, J. 
 JOURNAL OF COMPUTATIONAL CHEMISTRY, 25 (3), 335-342 (2004). 
 Time-reversible always stable predictor-corrector method for molecular dynamics of polarizable molecules.
 http://dx.doi.org/10.1002/jcc.10385


 Hartwigsen, C; Goedecker, S; Hutter, J. 
 PHYSICAL REVIEW B, 58 (7), 3641-3662 (1998). 
 Relativistic separable dual-space Gaussian pseudopotentials from H to Rn.
 http://dx.doi.org/10.1103/PhysRevB.58.3641


 Lippert, G; Hutter, J; Parrinello, M. 
 MOLECULAR PHYSICS, 92 (3), 477-487 (1997). 
 A hybrid Gaussian and plane wave density functional scheme.
 http://dx.doi.org/10.1080/002689797170220


 Perdew, JP; Burke, K; Ernzerhof, M. 
 PHYSICAL REVIEW LETTERS, 77 (18), 3865-3868 (1996). 
 Generalized gradient approximation made simple.
 http://dx.doi.org/10.1103/PhysRevLett.77.3865


 Goedecker, S; Teter, M; Hutter, J. 
 PHYSICAL REVIEW B, 54 (3), 1703-1710 (1996). 
 Separable dual-space Gaussian pseudopotentials.
 http://dx.doi.org/10.1103/PhysRevB.54.1703


 -------------------------------------------------------------------------------
 -                                                                             -
 -                                T I M I N G                                  -
 -                                                                             -
 -------------------------------------------------------------------------------
 SUBROUTINE                       CALLS  ASD         SELF TIME        TOTAL TIME
                                MAXIMUM       AVERAGE  MAXIMUM  AVERAGE  MAXIMUM
 CP2K                                 1  1.0    0.011    0.011   22.002   22.002
 cp_geo_opt                           1  2.0    0.000    0.000   21.494   21.494
 geoopt_bfgs                          1  3.0    0.001    0.001   21.493   21.493
 cp_eval_at                           2  4.0    0.000    0.000   21.475   21.475
 qs_forces                            2  5.0    0.000    0.000   21.475   21.475
 rebuild_ks_matrix                   14  9.6    0.000    0.000   19.144   19.144
 qs_ks_build_kohn_sham_matrix        14 10.6    0.002    0.002   19.144   19.144
 qs_energies                          2  6.0    0.000    0.000   18.887   18.887
 scf_env_do_scf                       2  7.0    0.000    0.000   18.341   18.341
 scf_env_do_scf_inner_loop           12  8.0    0.001    0.001   18.341   18.341
 qs_ks_update_qs_env                 12  9.0    0.000    0.000   16.561   16.561
 qs_vxc_create                       14 11.6    0.000    0.000   11.250   11.250
 xc_vxc_pw_create                    14 12.6    0.184    0.184   11.250   11.250
 pw_transfer                        268 13.3    0.023    0.023   10.230   10.230
 fft_wrap_pw1pw2                    268 14.3    0.003    0.003   10.206   10.206
 fft_wrap_pw1pw2_150                184 15.3    0.916    0.916    9.985    9.985
 xc_rho_set_and_dset_create          14 13.6    0.089    0.089    7.372    7.372
 fft3d_s                            269 16.3    6.316    6.316    6.334    6.334
 pw_poisson_solve                    14 11.6    0.344    0.344    5.831    5.831
 xc_functional_eval                  14 14.6    0.000    0.000    4.402    4.402
 pbe_lda_eval                        14 15.6    4.402    4.402    4.402    4.402
 ps_wavelet_solve                    14 12.6    2.702    2.702    2.814    2.814
 qs_ks_update_qs_env_forces           2  6.0    0.000    0.000    2.584    2.584
 qs_rho_update_rho                   14  9.1    0.000    0.000    2.080    2.080
 calculate_rho_elec                  14 10.1    0.110    0.110    2.079    2.079
 density_rs2pw                       14 11.1    0.001    0.001    1.928    1.928
 pw_scatter_s                       140 16.7    1.491    1.491    1.491    1.491
 pw_gather_s                        128 15.9    1.439    1.439    1.439    1.439
 sum_up_and_integrate                14 11.6    0.040    0.040    1.156    1.156
 integrate_v_rspace                  14 12.6    0.092    0.092    1.116    1.116
 potential_pw2rs                     14 13.6    0.007    0.007    1.021    1.021
 pw_derive                           84 14.1    0.894    0.894    0.894    0.894
 pw_poisson_rebuild                  14 12.6    0.000    0.000    0.824    0.824
 ps_wavelet_create                    1 14.0    0.000    0.000    0.824    0.824
 RS_z_slice_distribution              1 15.0    0.824    0.824    0.824    0.824
 qs_init_subsys                       1  2.0    0.001    0.001    0.477    0.477
 pw_copy                            126 14.2    0.448    0.448    0.448    0.448
 -------------------------------------------------------------------------------

 The number of warnings for this run is : 16
 
 -------------------------------------------------------------------------------
  **** **** ******  **  PROGRAM ENDED AT                 2020-09-11 10:55:10.775
 ***** ** ***  *** **   PROGRAM RAN ON                           LAPTOP-SAG0HDJD
 **    ****   ******    PROGRAM RAN BY                                        rs
 ***** **    ** ** **   PROGRAM PROCESS ID                                   499
  **** **  *******  **  PROGRAM STOPPED IN /mnt/c/Users/rstha/Documents/research
                                           /workflow/cp2kmdpy/cp2kmdpy/tests/dio
                                           xygen-nvt
