#     Step Nr.          Time[fs]        Kin.[a.u.]          Temp[K]            Pot.[a.u.]        Cons Qty[a.u.]        UsedTime[s]
         0            0.000000         0.003892570       273.150000000       -63.424680288       -63.420355210         0.000000000
         1            1.000000         0.005192104       364.341065787       -63.583771813       -63.578149120         7.248586600
         2            2.000000         0.011156137       782.850025736       -63.637684292       -63.626101011         3.839104300
         3            3.000000         0.022819313      1601.280144695       -63.661951673       -63.638712304         3.680905400
         4            4.000000         0.039740093      2788.647532984       -63.679773135       -63.639625720         3.805948800
         5            5.000000         0.061368120      4306.332519130       -63.700091061       -63.638335251         3.695674300
