 DBCSR| Multiplication driver                                               BLAS
 DBCSR| Multrec recursion limit                                              512
 DBCSR| Multiplication stack size                                           1000
 DBCSR| Maximum elements for images                                    UNLIMITED
 DBCSR| Multiplicative factor virtual images                                   1
 DBCSR| Multiplication size stacks                                             3
 DBCSR| Number of 3D layers                                               SINGLE
 DBCSR| Use MPI memory allocation                                              T
 DBCSR| Use RMA algorithm                                                      F
 DBCSR| Use Communication thread                                               T
 DBCSR| Communication thread load                                             87


  **** **** ******  **  PROGRAM STARTED AT               2020-09-11 10:55:26.590
 ***** ** ***  *** **   PROGRAM STARTED ON                       LAPTOP-SAG0HDJD
 **    ****   ******    PROGRAM STARTED BY                                    rs
 ***** **    ** ** **   PROGRAM PROCESS ID                                   510
  **** **  *******  **  PROGRAM STARTED IN /mnt/c/Users/rstha/Documents/research
                                           /workflow/cp2kmdpy/cp2kmdpy/tests/dio
                                           xygen-nvt

 CP2K| version string:                                          CP2K version 5.1
 CP2K| source code revision number:                                    svn:18091
 CP2K| cp2kflags: libint fftw3 libxc parallel mpi3 scalapack libderiv_max_am1=5 
 CP2K|            libint_max_am=6
 CP2K| is freely available from                            https://www.cp2k.org/
 CP2K| Program compiled at                          Mon Jan 15 17:12:42 UTC 2018
 CP2K| Program compiled on                                       lgw01-amd64-018
 CP2K| Program compiled for                                Linux-x86_64-gfortran
 CP2K| Data directory path                                       /usr/share/cp2k
 CP2K| Input file name                               sample_project_md_input.inp

 GLOBAL| Force Environment number                                              1
 GLOBAL| Basis set file name                                        BASIS_MOLOPT
 GLOBAL| Potential file name                                      GTH_POTENTIALS
 GLOBAL| MM Potential file name                                     MM_POTENTIAL
 GLOBAL| Coordinate file name                                      __STD_INPUT__
 GLOBAL| Method name                                                        CP2K
 GLOBAL| Project name                                             sample_project
 GLOBAL| Preferred FFT library                                             FFTW3
 GLOBAL| Preferred diagonalization lib.                                       SL
 GLOBAL| Run type                                                             MD
 GLOBAL| All-to-all communication in single precision                          F
 GLOBAL| FFTs using library dependent lengths                                  F
 GLOBAL| Global print level                                                  LOW
 GLOBAL| Total number of message passing processes                             1
 GLOBAL| Number of threads for this process                                    1
 GLOBAL| This output is from process                                           0
 GLOBAL| CPU model name :  Intel(R) Core(TM) i5-8250U CPU @ 1.60GHz

 MEMORY| system memory details [Kb]
 MEMORY|                        rank 0           min           max       average
 MEMORY| MemTotal              8262884       8262884       8262884       8262884
 MEMORY| MemFree               2207668       2207668       2207668       2207668
 MEMORY| Buffers                 34032         34032         34032         34032
 MEMORY| Cached                 188576        188576        188576        188576
 MEMORY| Slab                    13868         13868         13868         13868
 MEMORY| SReclaimable             6744          6744          6744          6744
 MEMORY| MemLikelyFree         2437020       2437020       2437020       2437020


 GENERATE|  Preliminary Number of Bonds generated:                             0
 GENERATE|  Achieved consistency in connectivity generation.

 *******************************************************************************
 *******************************************************************************
 **                                                                           **
 **     #####                         ##              ##                      **
 **    ##   ##            ##          ##              ##                      **
 **   ##     ##                       ##            ######                    **
 **   ##     ##  ##   ##  ##   #####  ##  ##   ####   ##    #####    #####    **
 **   ##     ##  ##   ##  ##  ##      ## ##   ##      ##   ##   ##  ##   ##   **
 **   ##  ## ##  ##   ##  ##  ##      ####     ###    ##   ######   ######    **
 **    ##  ###   ##   ##  ##  ##      ## ##      ##   ##   ##       ##        **
 **     #######   #####   ##   #####  ##  ##  ####    ##    #####   ##        **
 **           ##                                                    ##        **
 **                                                                           **
 **                                                ... make the atoms dance   **
 **                                                                           **
 **            Copyright (C) by CP2K developers group (2000 - 2017)           **
 **                                                                           **
 *******************************************************************************


 SCF PARAMETERS         Density guess:                                    ATOMIC
                        --------------------------------------------------------
                        max_scf:                                               2
                        max_scf_history:                                       0
                        max_diis:                                              4
                        --------------------------------------------------------
                        eps_scf:                                        1.00E-06
                        eps_scf_history:                                0.00E+00
                        eps_diis:                                       1.00E-01
                        eps_eigval:                                     1.00E-05
                        --------------------------------------------------------
                        level_shift [a.u.]:                                 0.00
                        --------------------------------------------------------
                        Outer loop SCF in use 
                        No variables optimised in outer loop
                        eps_scf                                         1.00E-04
                        max_scf                                                1
                        No outer loop optimization
                        step_size                                       5.00E-01

 MD| Molecular Dynamics Protocol 
 MD| Ensemble Type                                                           NVT
 MD| Number of Time Steps                                                    999
 MD| Time Step [fs]                                                         1.00
 MD| Temperature [K]                                                      273.15
 MD| Temperature tolerance [K]                                              0.00
 MD| Constraints activated 
 MD| Tolerance for shake                                              0.1000E-05
 MD| Print MD information every                                        1 step(s)
 MD| File type     Print frequency[steps]                             File names
 MD| Coordinates           10                           sample_project-pos-1.xyz
 MD| Velocities             1                           sample_project-vel-1.xyz
 MD| Energies               1                              sample_project-1.ener
 MD| Dump                   1                           sample_project-1.restart

 ROT| Rotational Analysis Info 
 ROT| Principal axes and moments of inertia in atomic units:
 ROT|                                1                 2                 3
 ROT| EIGENVALUES            0.239863896E+06   0.719138457E+06   0.940804978E+06
 ROT|      X                    -0.641142957      -0.119784680      -0.758015395
 ROT|      Y                     0.061176640       0.976622179      -0.206074109
 ROT|      Z                     0.764979168      -0.178495799      -0.618826408
 ROT| Numer of Rotovibrational vectors:     6

 Calculation of degrees of freedom
                                                      Number of atoms:         4
                                 Number of Intramolecular constraints:         0
                                 Number of Intermolecular constraints:         0
                                  Invariants(translation + rotations):         3
                                                   Degrees of freedom:         9


 Restraints Information
                                  Number of Intramolecular restraints:         0
                                  Number of Intermolecular restraints:         0

 THERMOSTAT| Thermostat Info for PARTICLES
 THERMOSTAT| Type of thermostat                               Nose-Hoover-Chains
 THERMOSTAT| Nose-Hoover-Chain length                                          3
 THERMOSTAT| Nose-Hoover-Chain time constant [  fs]                      1000.00
 THERMOSTAT| Order of Yoshida integrator                                       3
 THERMOSTAT| Number of multiple time steps                                     2
 THERMOSTAT| Initial Potential Energy                                   0.000000
 THERMOSTAT| Initial Kinetic Energy                                     0.000433
 THERMOSTAT| End of Thermostat Info for PARTICLES


 *** WARNING in motion/thermostat/barostat_types.F:129 :: A barostat has ***
 *** been defined with an MD ensemble which does not support barostat!   ***
 *** It's definition will be ignored!                                    ***

 ************************** Velocities initialization **************************
 Initial Temperature                                                    273.15 K
 COM velocity:           -0.000000000000     -0.000000000000      0.000000000000
 *******************************************************************************


 Number of electrons:                                                         24
 Number of occupied orbitals:                                                 12
 Number of molecular orbitals:                                                12

 Number of orbital functions:                                                 52
 Number of independent orbital functions:                                     52

 Extrapolation method: initial_guess


 SCF WAVEFUNCTION OPTIMIZATION

  ----------------------------------- OT ---------------------------------------
  Minimizer      : DIIS                : direct inversion
                                         in the iterative subspace
                                         using   7 DIIS vectors
                                         safer DIIS on
  Preconditioner : FULL_SINGLE_INVERSE : inversion of 
                                         H + eS - 2*(Sc)(c^T*H*c+const)(Sc)^T
  Precond_solver : DEFAULT
  stepsize       :    0.08000000                  energy_gap     :    0.08000000
  eps_taylor     :   0.10000E-15                  max_taylor     :             4
  ----------------------------------- OT ---------------------------------------

  Step     Update method      Time    Convergence         Total energy    Change
  ------------------------------------------------------------------------------
     1 OT DIIS     0.80E-01    0.7     0.18999294       -62.3421598050 -6.23E+01
     2 OT DIIS     0.80E-01    0.6     0.16410652       -62.7167705789 -3.75E-01

  Leaving inner SCF loop after reaching     2 steps.


  Electronic density on regular grids:        -23.9997130503        0.0002869497
  Core density on regular grids:               23.9996541904       -0.0003458096
  Total charge density on r-space grids:       -0.0000588599
  Total charge density g-space grids:          -0.0000588599

  Overlap energy of the core charge distribution:               0.00000000000000
  Self energy of the core charge distribution:               -166.10482831599549
  Core Hamiltonian energy:                                     46.66880418232884
  Hartree energy:                                              70.08963204093274
  Exchange-correlation energy:                                -13.36971554634874
  Dispersion energy:                                           -0.00066293986734

  Total energy:                                               -62.71677057894999

  outer SCF iter =    1 RMS gradient =   0.16E+00 energy =        -62.7167705789

  ----------------------------------- OT ---------------------------------------
  Minimizer      : DIIS                : direct inversion
                                         in the iterative subspace
                                         using   7 DIIS vectors
                                         safer DIIS on
  Preconditioner : FULL_SINGLE_INVERSE : inversion of 
                                         H + eS - 2*(Sc)(c^T*H*c+const)(Sc)^T
  Precond_solver : DEFAULT
  stepsize       :    0.08000000                  energy_gap     :    0.08000000
  eps_taylor     :   0.10000E-15                  max_taylor     :             4
  ----------------------------------- OT ---------------------------------------

  Step     Update method      Time    Convergence         Total energy    Change
  ------------------------------------------------------------------------------
     1 OT DIIS     0.80E-01    1.2     0.09333836       -63.1434176157 -4.27E-01
     2 OT DIIS     0.80E-01    0.6     0.11062215       -63.2860750839 -1.43E-01

  Leaving inner SCF loop after reaching     2 steps.


  Electronic density on regular grids:        -23.9997098925        0.0002901075
  Core density on regular grids:               23.9996541904       -0.0003458096
  Total charge density on r-space grids:       -0.0000557021
  Total charge density g-space grids:          -0.0000557021

  Overlap energy of the core charge distribution:               0.00000000000000
  Self energy of the core charge distribution:               -166.10482831599549
  Core Hamiltonian energy:                                     45.46044307626883
  Hartree energy:                                              70.60421125109097
  Exchange-correlation energy:                                -13.24523815541046
  Dispersion energy:                                           -0.00066293986734

  Total energy:                                               -63.28607508391349

  outer SCF iter =    2 RMS gradient =   0.11E+00 energy =        -63.2860750839
  outer SCF loop FAILED to converge after    2 iterations or    4 steps


 *** WARNING in qs_scf.F:539 :: SCF run NOT converged ***

 Writing restart DM sample_project_SCF_DM_SPIN_1_RESTART.dm with checksum:       0.14184013E+03

 ENERGY| Total FORCE_EVAL ( QS ) energy (a.u.):              -63.424680288473979


 MD_ENERGIES| Initialization proceeding


 ******************************** GO CP2K GO! **********************************
 INITIAL POTENTIAL ENERGY[hartree]     =                     -0.634246802885E+02
 INITIAL KINETIC ENERGY[hartree]       =                      0.389257024958E-02
 INITIAL TEMPERATURE[K]                =                                 273.150
 INITIAL PRESSURE[bar]                 =                     -0.307143473306E+04
 INITIAL VOLUME[bohr^3]                =                      0.674833458309E+04
 INITIAL CELL LNTHS[bohr]   =      0.1889726E+02   0.1889726E+02   0.1889726E+02
 INITIAL CELL ANGLS[deg]    =      0.9000000E+02   0.9000000E+02   0.9000000E+02
 ******************************** GO CP2K GO! **********************************

 Number of electrons:                                                         24
 Number of occupied orbitals:                                                 12
 Number of molecular orbitals:                                                12

 Number of orbital functions:                                                 52
 Number of independent orbital functions:                                     52

 Extrapolation method: ASPC


 SCF WAVEFUNCTION OPTIMIZATION

  ----------------------------------- OT ---------------------------------------
  Minimizer      : DIIS                : direct inversion
                                         in the iterative subspace
                                         using   7 DIIS vectors
                                         safer DIIS on
  Preconditioner : FULL_SINGLE_INVERSE : inversion of 
                                         H + eS - 2*(Sc)(c^T*H*c+const)(Sc)^T
  Precond_solver : DEFAULT
  stepsize       :    0.08000000                  energy_gap     :    0.08000000
  eps_taylor     :   0.10000E-15                  max_taylor     :             4
  ----------------------------------- OT ---------------------------------------

  Step     Update method      Time    Convergence         Total energy    Change
  ------------------------------------------------------------------------------
     1 OT DIIS     0.80E-01    0.6     0.05288387       -63.4251124325 -6.34E+01
     2 OT DIIS     0.80E-01    0.7     0.06416078       -63.4953538175 -7.02E-02

  Leaving inner SCF loop after reaching     2 steps.


  Electronic density on regular grids:        -23.9996943303        0.0003056697
  Core density on regular grids:               23.9996565349       -0.0003434651
  Total charge density on r-space grids:       -0.0000377955
  Total charge density g-space grids:          -0.0000377955

  Overlap energy of the core charge distribution:               0.00000000000000
  Self energy of the core charge distribution:               -166.10482831599549
  Core Hamiltonian energy:                                     45.29376205763409
  Hartree energy:                                              70.54333197991373
  Exchange-correlation energy:                                -13.22695565981236
  Dispersion energy:                                           -0.00066387928687

  Total energy:                                               -63.49535381754691

  outer SCF iter =    1 RMS gradient =   0.64E-01 energy =        -63.4953538175

  ----------------------------------- OT ---------------------------------------
  Minimizer      : DIIS                : direct inversion
                                         in the iterative subspace
                                         using   7 DIIS vectors
                                         safer DIIS on
  Preconditioner : FULL_SINGLE_INVERSE : inversion of 
                                         H + eS - 2*(Sc)(c^T*H*c+const)(Sc)^T
  Precond_solver : DEFAULT
  stepsize       :    0.08000000                  energy_gap     :    0.08000000
  eps_taylor     :   0.10000E-15                  max_taylor     :             4
  ----------------------------------- OT ---------------------------------------

  Step     Update method      Time    Convergence         Total energy    Change
  ------------------------------------------------------------------------------
     1 OT DIIS     0.80E-01    1.3     0.03601990       -63.5387677033 -4.34E-02
     2 OT DIIS     0.80E-01    0.8     0.07427531       -63.5510310532 -1.23E-02

  Leaving inner SCF loop after reaching     2 steps.


  Electronic density on regular grids:        -23.9996904411        0.0003095589
  Core density on regular grids:               23.9996565349       -0.0003434651
  Total charge density on r-space grids:       -0.0000339062
  Total charge density g-space grids:          -0.0000339062

  Overlap energy of the core charge distribution:               0.00000000000000
  Self energy of the core charge distribution:               -166.10482831599549
  Core Hamiltonian energy:                                     45.26857537226713
  Hartree energy:                                              70.51345003933190
  Exchange-correlation energy:                                -13.22756426951875
  Dispersion energy:                                           -0.00066387928687

  Total energy:                                               -63.55103105320209

  outer SCF iter =    2 RMS gradient =   0.74E-01 energy =        -63.5510310532
  outer SCF loop FAILED to converge after    2 iterations or    4 steps


 *** WARNING in qs_scf.F:539 :: SCF run NOT converged ***

 Writing restart DM sample_project_SCF_DM_SPIN_1_RESTART.dm with checksum:       0.13740287E+03

 ENERGY| Total FORCE_EVAL ( QS ) energy (a.u.):              -63.583771813336107


 *******************************************************************************
 ENSEMBLE TYPE                =                                              NVT
 STEP NUMBER                  =                                                1
 TIME [fs]                    =                                         1.000000
 CONSERVED QUANTITY [hartree] =                              -0.635781491200E+02

                                              INSTANTANEOUS             AVERAGES
 CPU TIME [s]                 =                        7.25                 7.25
 ENERGY DRIFT PER ATOM [K]    =         -0.124568290560E+05   0.000000000000E+00
 POTENTIAL ENERGY[hartree]    =         -0.635837718133E+02  -0.635837718133E+02
 KINETIC ENERGY [hartree]     =          0.519210394795E-02   0.519210394795E-02
 TEMPERATURE [K]              =                     364.341              364.341
 PRESSURE [bar]               =         -0.107656527542E+05  -0.107656527542E+05
 *******************************************************************************


 Number of electrons:                                                         24
 Number of occupied orbitals:                                                 12
 Number of molecular orbitals:                                                12

 Number of orbital functions:                                                 52
 Number of independent orbital functions:                                     52

 Extrapolation method: ASPC


 SCF WAVEFUNCTION OPTIMIZATION

  ----------------------------------- OT ---------------------------------------
  Minimizer      : DIIS                : direct inversion
                                         in the iterative subspace
                                         using   7 DIIS vectors
                                         safer DIIS on
  Preconditioner : FULL_SINGLE_INVERSE : inversion of 
                                         H + eS - 2*(Sc)(c^T*H*c+const)(Sc)^T
  Precond_solver : DEFAULT
  stepsize       :    0.08000000                  energy_gap     :    0.08000000
  eps_taylor     :   0.10000E-15                  max_taylor     :             4
  ----------------------------------- OT ---------------------------------------

  Step     Update method      Time    Convergence         Total energy    Change
  ------------------------------------------------------------------------------
     1 OT DIIS     0.80E-01    0.7     0.04783976       -63.5955784457 -6.36E+01
     2 OT DIIS     0.80E-01    0.7     0.11561367       -63.5421697143  5.34E-02

  Leaving inner SCF loop after reaching     2 steps.


  Electronic density on regular grids:        -23.9996680104        0.0003319896
  Core density on regular grids:               23.9996553434       -0.0003446566
  Total charge density on r-space grids:       -0.0000126671
  Total charge density g-space grids:          -0.0000126671

  Overlap energy of the core charge distribution:               0.00000000000000
  Self energy of the core charge distribution:               -166.10482831599549
  Core Hamiltonian energy:                                     45.30240119274609
  Hartree energy:                                              70.49947148568758
  Exchange-correlation energy:                                -13.23854999895458
  Dispersion energy:                                           -0.00066407777126

  Total energy:                                               -63.54216971428767

  outer SCF iter =    1 RMS gradient =   0.12E+00 energy =        -63.5421697143

  ----------------------------------- OT ---------------------------------------
  Minimizer      : DIIS                : direct inversion
                                         in the iterative subspace
                                         using   7 DIIS vectors
                                         safer DIIS on
  Preconditioner : FULL_SINGLE_INVERSE : inversion of 
                                         H + eS - 2*(Sc)(c^T*H*c+const)(Sc)^T
  Precond_solver : DEFAULT
  stepsize       :    0.08000000                  energy_gap     :    0.08000000
  eps_taylor     :   0.10000E-15                  max_taylor     :             4
  ----------------------------------- OT ---------------------------------------

  Step     Update method      Time    Convergence         Total energy    Change
  ------------------------------------------------------------------------------
     1 OT DIIS     0.80E-01    1.5     0.02417567       -63.6279558288 -8.58E-02
     2 OT DIIS     0.80E-01    0.8     0.06381428       -63.6125143388  1.54E-02

  Leaving inner SCF loop after reaching     2 steps.


  Electronic density on regular grids:        -23.9996691527        0.0003308473
  Core density on regular grids:               23.9996553434       -0.0003446566
  Total charge density on r-space grids:       -0.0000138093
  Total charge density g-space grids:          -0.0000138093

  Overlap energy of the core charge distribution:               0.00000000000000
  Self energy of the core charge distribution:               -166.10482831599549
  Core Hamiltonian energy:                                     45.26090330287114
  Hartree energy:                                              70.45604169626735
  Exchange-correlation energy:                                -13.22396694416355
  Dispersion energy:                                           -0.00066407777126

  Total energy:                                               -63.61251433879181

  outer SCF iter =    2 RMS gradient =   0.64E-01 energy =        -63.6125143388
  outer SCF loop FAILED to converge after    2 iterations or    4 steps


 *** WARNING in qs_scf.F:539 :: SCF run NOT converged ***

 Writing restart DM sample_project_SCF_DM_SPIN_1_RESTART.dm with checksum:       0.13552743E+03

 ENERGY| Total FORCE_EVAL ( QS ) energy (a.u.):              -63.637684291999996


 *******************************************************************************
 ENSEMBLE TYPE                =                                              NVT
 STEP NUMBER                  =                                                2
 TIME [fs]                    =                                         2.000000
 CONSERVED QUANTITY [hartree] =                              -0.636261010110E+02

                                              INSTANTANEOUS             AVERAGES
 CPU TIME [s]                 =                        3.84                 5.54
 ENERGY DRIFT PER ATOM [K]    =         -0.162423269370E+05  -0.812116346851E+04
 POTENTIAL ENERGY[hartree]    =         -0.636376842920E+02  -0.636107280527E+02
 KINETIC ENERGY [hartree]     =          0.111561366285E-01   0.817412028821E-02
 TEMPERATURE [K]              =                     782.850              573.596
 PRESSURE [bar]               =         -0.129623816179E+05  -0.118640171860E+05
 *******************************************************************************


 Number of electrons:                                                         24
 Number of occupied orbitals:                                                 12
 Number of molecular orbitals:                                                12

 Number of orbital functions:                                                 52
 Number of independent orbital functions:                                     52

 Extrapolation method: ASPC


 SCF WAVEFUNCTION OPTIMIZATION

  ----------------------------------- OT ---------------------------------------
  Minimizer      : DIIS                : direct inversion
                                         in the iterative subspace
                                         using   7 DIIS vectors
                                         safer DIIS on
  Preconditioner : FULL_SINGLE_INVERSE : inversion of 
                                         H + eS - 2*(Sc)(c^T*H*c+const)(Sc)^T
  Precond_solver : DEFAULT
  stepsize       :    0.08000000                  energy_gap     :    0.08000000
  eps_taylor     :   0.10000E-15                  max_taylor     :             4
  ----------------------------------- OT ---------------------------------------

  Step     Update method      Time    Convergence         Total energy    Change
  ------------------------------------------------------------------------------
     1 OT DIIS     0.80E-01    0.7     0.06423890       -63.6181534779 -6.36E+01
     2 OT DIIS     0.80E-01    0.7     0.20165056       -63.3991233551  2.19E-01

  Leaving inner SCF loop after reaching     2 steps.


  Electronic density on regular grids:        -23.9996231266        0.0003768734
  Core density on regular grids:               23.9996668466       -0.0003331534
  Total charge density on r-space grids:        0.0000437199
  Total charge density g-space grids:           0.0000437199

  Overlap energy of the core charge distribution:               0.00000000000000
  Self energy of the core charge distribution:               -166.10482831599549
  Core Hamiltonian energy:                                     45.36584690413612
  Hartree energy:                                              70.59441850558200
  Exchange-correlation energy:                                -13.25389615000310
  Dispersion energy:                                           -0.00066429886168

  Total energy:                                               -63.39912335514215

  outer SCF iter =    1 RMS gradient =   0.20E+00 energy =        -63.3991233551

  ----------------------------------- OT ---------------------------------------
  Minimizer      : DIIS                : direct inversion
                                         in the iterative subspace
                                         using   7 DIIS vectors
                                         safer DIIS on
  Preconditioner : FULL_SINGLE_INVERSE : inversion of 
                                         H + eS - 2*(Sc)(c^T*H*c+const)(Sc)^T
  Precond_solver : DEFAULT
  stepsize       :    0.08000000                  energy_gap     :    0.08000000
  eps_taylor     :   0.10000E-15                  max_taylor     :             4
  ----------------------------------- OT ---------------------------------------

  Step     Update method      Time    Convergence         Total energy    Change
  ------------------------------------------------------------------------------
     1 OT DIIS     0.80E-01    1.3     0.01899144       -63.6549036082 -2.56E-01
     2 OT DIIS     0.80E-01    0.7     0.05097093       -63.6466696802  8.23E-03

  Leaving inner SCF loop after reaching     2 steps.


  Electronic density on regular grids:        -23.9996241271        0.0003758729
  Core density on regular grids:               23.9996668466       -0.0003331534
  Total charge density on r-space grids:        0.0000427195
  Total charge density g-space grids:           0.0000427195

  Overlap energy of the core charge distribution:               0.00000000000000
  Self energy of the core charge distribution:               -166.10482831599549
  Core Hamiltonian energy:                                     45.26817909738961
  Hartree energy:                                              70.41275261438712
  Exchange-correlation energy:                                -13.22210877708007
  Dispersion energy:                                           -0.00066429886168

  Total energy:                                               -63.64666968016051

  outer SCF iter =    2 RMS gradient =   0.51E-01 energy =        -63.6466696802
  outer SCF loop FAILED to converge after    2 iterations or    4 steps


 *** WARNING in qs_scf.F:539 :: SCF run NOT converged ***

 Writing restart DM sample_project_SCF_DM_SPIN_1_RESTART.dm with checksum:       0.13192153E+03

 ENERGY| Total FORCE_EVAL ( QS ) energy (a.u.):              -63.661951672938770


 *******************************************************************************
 ENSEMBLE TYPE                =                                              NVT
 STEP NUMBER                  =                                                3
 TIME [fs]                    =                                         3.000000
 CONSERVED QUANTITY [hartree] =                              -0.636387123037E+02

                                              INSTANTANEOUS             AVERAGES
 CPU TIME [s]                 =                        3.68                 4.92
 ENERGY DRIFT PER ATOM [K]    =         -0.172379085641E+05  -0.111600785004E+05
 POTENTIAL ENERGY[hartree]    =         -0.636619516729E+02  -0.636278025928E+02
 KINETIC ENERGY [hartree]     =          0.228193133900E-01   0.130558513222E-01
 TEMPERATURE [K]              =                    1601.280              916.157
 PRESSURE [bar]               =         -0.127553760435E+05  -0.121611368052E+05
 *******************************************************************************


 Number of electrons:                                                         24
 Number of occupied orbitals:                                                 12
 Number of molecular orbitals:                                                12

 Number of orbital functions:                                                 52
 Number of independent orbital functions:                                     52

 Extrapolation method: ASPC


 SCF WAVEFUNCTION OPTIMIZATION

  ----------------------------------- OT ---------------------------------------
  Minimizer      : DIIS                : direct inversion
                                         in the iterative subspace
                                         using   7 DIIS vectors
                                         safer DIIS on
  Preconditioner : FULL_SINGLE_INVERSE : inversion of 
                                         H + eS - 2*(Sc)(c^T*H*c+const)(Sc)^T
  Precond_solver : DEFAULT
  stepsize       :    0.08000000                  energy_gap     :    0.08000000
  eps_taylor     :   0.10000E-15                  max_taylor     :             4
  ----------------------------------- OT ---------------------------------------

  Step     Update method      Time    Convergence         Total energy    Change
  ------------------------------------------------------------------------------
     1 OT DIIS     0.80E-01    0.7     0.03886858       -63.6578605024 -6.37E+01
     2 OT DIIS     0.80E-01    0.8     0.11687013       -63.5942705144  6.36E-02

  Leaving inner SCF loop after reaching     2 steps.


  Electronic density on regular grids:        -23.9996122001        0.0003877999
  Core density on regular grids:               23.9996622249       -0.0003377751
  Total charge density on r-space grids:        0.0000500248
  Total charge density g-space grids:           0.0000500248

  Overlap energy of the core charge distribution:               0.00000000000000
  Self energy of the core charge distribution:               -166.10482831599549
  Core Hamiltonian energy:                                     45.36056253941653
  Hartree energy:                                              70.40596324906302
  Exchange-correlation energy:                                -13.25530256385093
  Dispersion energy:                                           -0.00066542305710

  Total energy:                                               -63.59427051442398

  outer SCF iter =    1 RMS gradient =   0.12E+00 energy =        -63.5942705144

  ----------------------------------- OT ---------------------------------------
  Minimizer      : DIIS                : direct inversion
                                         in the iterative subspace
                                         using   7 DIIS vectors
                                         safer DIIS on
  Preconditioner : FULL_SINGLE_INVERSE : inversion of 
                                         H + eS - 2*(Sc)(c^T*H*c+const)(Sc)^T
  Precond_solver : DEFAULT
  stepsize       :    0.08000000                  energy_gap     :    0.08000000
  eps_taylor     :   0.10000E-15                  max_taylor     :             4
  ----------------------------------- OT ---------------------------------------

  Step     Update method      Time    Convergence         Total energy    Change
  ------------------------------------------------------------------------------
     1 OT DIIS     0.80E-01    1.6     0.01488130       -63.6748025407 -8.05E-02
     2 OT DIIS     0.80E-01    0.6     0.02867790       -63.6741290409  6.73E-04

  Leaving inner SCF loop after reaching     2 steps.


  Electronic density on regular grids:        -23.9996105272        0.0003894728
  Core density on regular grids:               23.9996622249       -0.0003377751
  Total charge density on r-space grids:        0.0000516977
  Total charge density g-space grids:           0.0000516977

  Overlap energy of the core charge distribution:               0.00000000000000
  Self energy of the core charge distribution:               -166.10482831599549
  Core Hamiltonian energy:                                     45.31660475598838
  Hartree energy:                                              70.35793433303265
  Exchange-correlation energy:                                -13.24317439084689
  Dispersion energy:                                           -0.00066542305710

  Total energy:                                               -63.67412904087846

  outer SCF iter =    2 RMS gradient =   0.29E-01 energy =        -63.6741290409
  outer SCF loop FAILED to converge after    2 iterations or    4 steps


 *** WARNING in qs_scf.F:539 :: SCF run NOT converged ***

 Writing restart DM sample_project_SCF_DM_SPIN_1_RESTART.dm with checksum:       0.12793626E+03

 ENERGY| Total FORCE_EVAL ( QS ) energy (a.u.):              -63.679773134824714


 *******************************************************************************
 ENSEMBLE TYPE                =                                              NVT
 STEP NUMBER                  =                                                4
 TIME [fs]                    =                                         4.000000
 CONSERVED QUANTITY [hartree] =                              -0.636396257203E+02

                                              INSTANTANEOUS             AVERAGES
 CPU TIME [s]                 =                        3.81                 4.64
 ENERGY DRIFT PER ATOM [K]    =         -0.173100170153E+05  -0.126975631291E+05
 POTENTIAL ENERGY[hartree]    =         -0.636797731348E+02  -0.636407952283E+02
 KINETIC ENERGY [hartree]     =          0.397400930751E-01   0.197269117604E-01
 TEMPERATURE [K]              =                    2788.648             1384.280
 PRESSURE [bar]               =         -0.115128922651E+05  -0.119990756702E+05
 *******************************************************************************


 Number of electrons:                                                         24
 Number of occupied orbitals:                                                 12
 Number of molecular orbitals:                                                12

 Number of orbital functions:                                                 52
 Number of independent orbital functions:                                     52

 Extrapolation method: ASPC


 SCF WAVEFUNCTION OPTIMIZATION

  ----------------------------------- OT ---------------------------------------
  Minimizer      : DIIS                : direct inversion
                                         in the iterative subspace
                                         using   7 DIIS vectors
                                         safer DIIS on
  Preconditioner : FULL_SINGLE_INVERSE : inversion of 
                                         H + eS - 2*(Sc)(c^T*H*c+const)(Sc)^T
  Precond_solver : DEFAULT
  stepsize       :    0.08000000                  energy_gap     :    0.08000000
  eps_taylor     :   0.10000E-15                  max_taylor     :             4
  ----------------------------------- OT ---------------------------------------

  Step     Update method      Time    Convergence         Total energy    Change
  ------------------------------------------------------------------------------
     1 OT DIIS     0.80E-01    0.6     0.01544051       -63.6864011261 -6.37E+01
     2 OT DIIS     0.80E-01    0.7     0.01995863       -63.6923457418 -5.94E-03

  Leaving inner SCF loop after reaching     2 steps.


  Electronic density on regular grids:        -23.9996196077        0.0003803923
  Core density on regular grids:               23.9996519393       -0.0003480607
  Total charge density on r-space grids:        0.0000323315
  Total charge density g-space grids:           0.0000323315

  Overlap energy of the core charge distribution:               0.00000000000003
  Self energy of the core charge distribution:               -166.10482831599549
  Core Hamiltonian energy:                                     45.42290666065975
  Hartree energy:                                              70.27534997515409
  Exchange-correlation energy:                                -13.28510632434954
  Dispersion energy:                                           -0.00066773723342

  Total energy:                                               -63.69234574176458

  outer SCF iter =    1 RMS gradient =   0.20E-01 energy =        -63.6923457418

  ----------------------------------- OT ---------------------------------------
  Minimizer      : DIIS                : direct inversion
                                         in the iterative subspace
                                         using   7 DIIS vectors
                                         safer DIIS on
  Preconditioner : FULL_SINGLE_INVERSE : inversion of 
                                         H + eS - 2*(Sc)(c^T*H*c+const)(Sc)^T
  Precond_solver : DEFAULT
  stepsize       :    0.08000000                  energy_gap     :    0.08000000
  eps_taylor     :   0.10000E-15                  max_taylor     :             4
  ----------------------------------- OT ---------------------------------------

  Step     Update method      Time    Convergence         Total energy    Change
  ------------------------------------------------------------------------------
     1 OT DIIS     0.80E-01    1.5     0.01200132       -63.6957015195 -3.36E-03
     2 OT DIIS     0.80E-01    0.7     0.02781417       -63.6954717311  2.30E-04

  Leaving inner SCF loop after reaching     2 steps.


  Electronic density on regular grids:        -23.9996177092        0.0003822908
  Core density on regular grids:               23.9996519393       -0.0003480607
  Total charge density on r-space grids:        0.0000342301
  Total charge density g-space grids:           0.0000342301

  Overlap energy of the core charge distribution:               0.00000000000003
  Self energy of the core charge distribution:               -166.10482831599549
  Core Hamiltonian energy:                                     45.41745784701443
  Hartree energy:                                              70.27466005037152
  Exchange-correlation energy:                                -13.28209357523964
  Dispersion energy:                                           -0.00066773723342

  Total energy:                                               -63.69547173108255

  outer SCF iter =    2 RMS gradient =   0.28E-01 energy =        -63.6954717311
  outer SCF loop FAILED to converge after    2 iterations or    4 steps


 *** WARNING in qs_scf.F:539 :: SCF run NOT converged ***

 Writing restart DM sample_project_SCF_DM_SPIN_1_RESTART.dm with checksum:       0.12644928E+03

 ENERGY| Total FORCE_EVAL ( QS ) energy (a.u.):              -63.700091060578877


 *******************************************************************************
 ENSEMBLE TYPE                =                                              NVT
 STEP NUMBER                  =                                                5
 TIME [fs]                    =                                         5.000000
 CONSERVED QUANTITY [hartree] =                              -0.636383352514E+02

                                              INSTANTANEOUS             AVERAGES
 CPU TIME [s]                 =                        3.70                 4.45
 ENERGY DRIFT PER ATOM [K]    =         -0.172081426709E+05  -0.135996790375E+05
 POTENTIAL ENERGY[hartree]    =         -0.637000910606E+02  -0.636526543947E+02
 KINETIC ENERGY [hartree]     =          0.613681195269E-01   0.280551533137E-01
 TEMPERATURE [K]              =                    4306.333             1968.690
 PRESSURE [bar]               =         -0.100305588529E+05  -0.116053723067E+05
 *******************************************************************************


 Number of electrons:                                                         24
 Number of occupied orbitals:                                                 12
 Number of molecular orbitals:                                                12

 Number of orbital functions:                                                 52
 Number of independent orbital functions:                                     52

 Extrapolation method: ASPC


 SCF WAVEFUNCTION OPTIMIZATION

  ----------------------------------- OT ---------------------------------------
  Minimizer      : DIIS                : direct inversion
                                         in the iterative subspace
                                         using   7 DIIS vectors
                                         safer DIIS on
  Preconditioner : FULL_SINGLE_INVERSE : inversion of 
                                         H + eS - 2*(Sc)(c^T*H*c+const)(Sc)^T
  Precond_solver : DEFAULT
  stepsize       :    0.08000000                  energy_gap     :    0.08000000
  eps_taylor     :   0.10000E-15                  max_taylor     :             4
  ----------------------------------- OT ---------------------------------------

  Step     Update method      Time    Convergence         Total energy    Change
  ------------------------------------------------------------------------------
     1 OT DIIS     0.80E-01    0.6     0.02447116       -63.7127803230 -6.37E+01
