       2
 i =        1, E =       -43.6332923247
  O         0.9803330000        0.0269510000        6.9017490000
  O        -0.0266480000        0.7465300603        7.9072320248
