       2
 i =        1, E =       -33.4401773471
  O         0.2297800000        7.9948480000        0.0787780000
  O         0.7896264458        6.6102430977       -0.2235770000
