 DBCSR| Multiplication driver                                               BLAS
 DBCSR| Multrec recursion limit                                              512
 DBCSR| Multiplication stack size                                           1000
 DBCSR| Maximum elements for images                                    UNLIMITED
 DBCSR| Multiplicative factor virtual images                                   1
 DBCSR| Multiplication size stacks                                             3
 DBCSR| Number of 3D layers                                               SINGLE
 DBCSR| Use MPI memory allocation                                              T
 DBCSR| Use RMA algorithm                                                      F
 DBCSR| Use Communication thread                                               T
 DBCSR| Communication thread load                                             87


  **** **** ******  **  PROGRAM STARTED AT               2020-09-14 18:46:36.982
 ***** ** ***  *** **   PROGRAM STARTED ON                       LAPTOP-SAG0HDJD
 **    ****   ******    PROGRAM STARTED BY                                    rs
 ***** **    ** ** **   PROGRAM PROCESS ID                                  2889
  **** **  *******  **  PROGRAM STARTED IN /mnt/c/Users/rstha/Documents/research
                                           /workflow/cp2kmdpy/cp2kmdpy/tests/SHO
                                           RT/dioxygen-nvt

 CP2K| version string:                                          CP2K version 5.1
 CP2K| source code revision number:                                    svn:18091
 CP2K| cp2kflags: libint fftw3 libxc parallel mpi3 scalapack libderiv_max_am1=5 
 CP2K|            libint_max_am=6
 CP2K| is freely available from                            https://www.cp2k.org/
 CP2K| Program compiled at                          Mon Jan 15 17:12:42 UTC 2018
 CP2K| Program compiled on                                       lgw01-amd64-018
 CP2K| Program compiled for                                Linux-x86_64-gfortran
 CP2K| Data directory path                                       /usr/share/cp2k
 CP2K| Input file name                               twoO2molecules_md_input.inp

 GLOBAL| Force Environment number                                              1
 GLOBAL| Basis set file name                                        BASIS_MOLOPT
 GLOBAL| Potential file name                                      GTH_POTENTIALS
 GLOBAL| MM Potential file name                                     MM_POTENTIAL
 GLOBAL| Coordinate file name                                      __STD_INPUT__
 GLOBAL| Method name                                                        CP2K
 GLOBAL| Project name                                             twoO2molecules
 GLOBAL| Preferred FFT library                                             FFTW3
 GLOBAL| Preferred diagonalization lib.                                       SL
 GLOBAL| Run type                                                             MD
 GLOBAL| All-to-all communication in single precision                          F
 GLOBAL| FFTs using library dependent lengths                                  F
 GLOBAL| Global print level                                                  LOW
 GLOBAL| Total number of message passing processes                             1
 GLOBAL| Number of threads for this process                                    1
 GLOBAL| This output is from process                                           0
 GLOBAL| CPU model name :  Intel(R) Core(TM) i5-8250U CPU @ 1.60GHz

 MEMORY| system memory details [Kb]
 MEMORY|                        rank 0           min           max       average
 MEMORY| MemTotal              8262884       8262884       8262884       8262884
 MEMORY| MemFree               2093948       2093948       2093948       2093948
 MEMORY| Buffers                 34032         34032         34032         34032
 MEMORY| Cached                 188576        188576        188576        188576
 MEMORY| Slab                    13868         13868         13868         13868
 MEMORY| SReclaimable             6744          6744          6744          6744
 MEMORY| MemLikelyFree         2323300       2323300       2323300       2323300


 GENERATE|  Preliminary Number of Bonds generated:                             0
 GENERATE|  Achieved consistency in connectivity generation.

 *******************************************************************************
 *******************************************************************************
 **                                                                           **
 **     #####                         ##              ##                      **
 **    ##   ##            ##          ##              ##                      **
 **   ##     ##                       ##            ######                    **
 **   ##     ##  ##   ##  ##   #####  ##  ##   ####   ##    #####    #####    **
 **   ##     ##  ##   ##  ##  ##      ## ##   ##      ##   ##   ##  ##   ##   **
 **   ##  ## ##  ##   ##  ##  ##      ####     ###    ##   ######   ######    **
 **    ##  ###   ##   ##  ##  ##      ## ##      ##   ##   ##       ##        **
 **     #######   #####   ##   #####  ##  ##  ####    ##    #####   ##        **
 **           ##                                                    ##        **
 **                                                                           **
 **                                                ... make the atoms dance   **
 **                                                                           **
 **            Copyright (C) by CP2K developers group (2000 - 2017)           **
 **                                                                           **
 *******************************************************************************


 SCF PARAMETERS         Density guess:                                    ATOMIC
                        --------------------------------------------------------
                        max_scf:                                               2
                        max_scf_history:                                       0
                        max_diis:                                              4
                        --------------------------------------------------------
                        eps_scf:                                        1.00E-06
                        eps_scf_history:                                0.00E+00
                        eps_diis:                                       1.00E-01
                        eps_eigval:                                     1.00E-05
                        --------------------------------------------------------
                        level_shift [a.u.]:                                 0.00
                        --------------------------------------------------------
                        Outer loop SCF in use 
                        No variables optimised in outer loop
                        eps_scf                                         1.00E-04
                        max_scf                                                1
                        No outer loop optimization
                        step_size                                       5.00E-01

 MD| Molecular Dynamics Protocol 
 MD| Ensemble Type                                                           NVT
 MD| Number of Time Steps                                                     10
 MD| Time Step [fs]                                                         1.00
 MD| Temperature [K]                                                      273.15
 MD| Temperature tolerance [K]                                              0.00
 MD| Constraints activated 
 MD| Tolerance for shake                                              0.1000E-05
 MD| Print MD information every                                        1 step(s)
 MD| File type     Print frequency[steps]                             File names
 MD| Coordinates           10                           twoO2molecules-pos-1.xyz
 MD| Velocities             1                           twoO2molecules-vel-1.xyz
 MD| Energies               1                              twoO2molecules-1.ener
 MD| Dump                   1                           twoO2molecules-1.restart

 ROT| Rotational Analysis Info 
 ROT| Principal axes and moments of inertia in atomic units:
 ROT|                                1                 2                 3
 ROT| EIGENVALUES            0.207275406E+06   0.126492003E+07   0.130261859E+07
 ROT|      X                    -0.479781027      -0.267648955       0.835568192
 ROT|      Y                    -0.701007536       0.689641910      -0.181610766
 ROT|      Z                     0.527634912       0.672872999       0.518501038
 ROT| Numer of Rotovibrational vectors:     6

 Calculation of degrees of freedom
                                                      Number of atoms:         4
                                 Number of Intramolecular constraints:         0
                                 Number of Intermolecular constraints:         0
                                  Invariants(translation + rotations):         0
                                                   Degrees of freedom:        12


 Restraints Information
                                  Number of Intramolecular restraints:         0
                                  Number of Intermolecular restraints:         0

 THERMOSTAT| Thermostat Info for PARTICLES
 THERMOSTAT| Type of thermostat                               Nose-Hoover-Chains
 THERMOSTAT| Nose-Hoover-Chain length                                          5
 THERMOSTAT| Nose-Hoover-Chain time constant [  fs]                      1000.00
 THERMOSTAT| Order of Yoshida integrator                                       3
 THERMOSTAT| Number of multiple time steps                                     2
 THERMOSTAT| Initial Potential Energy                                   0.000000
 THERMOSTAT| Initial Kinetic Energy                                     0.005190
 THERMOSTAT| End of Thermostat Info for PARTICLES

 ************************** Velocities initialization **************************
 Initial Temperature                                                    273.15 K
 COM velocity:           -0.000000000000     -0.000000000000      0.000000000000
 *******************************************************************************


 Number of electrons:                                                         24
 Number of occupied orbitals:                                                 12
 Number of molecular orbitals:                                                12

 Number of orbital functions:                                                 52
 Number of independent orbital functions:                                     52

 Extrapolation method: initial_guess


 SCF WAVEFUNCTION OPTIMIZATION

  ----------------------------------- OT ---------------------------------------
  Minimizer      : DIIS                : direct inversion
                                         in the iterative subspace
                                         using   7 DIIS vectors
                                         safer DIIS on
  Preconditioner : FULL_SINGLE_INVERSE : inversion of 
                                         H + eS - 2*(Sc)(c^T*H*c+const)(Sc)^T
  Precond_solver : DEFAULT
  stepsize       :    0.08000000                  energy_gap     :    0.08000000
  eps_taylor     :   0.10000E-15                  max_taylor     :             4
  ----------------------------------- OT ---------------------------------------

  Step     Update method      Time    Convergence         Total energy    Change
  ------------------------------------------------------------------------------
     1 OT DIIS     0.80E-01    0.8     0.18668695       -62.2228723479 -6.22E+01
     2 OT DIIS     0.80E-01    0.8     0.14716674       -62.7335097831 -5.11E-01

  Leaving inner SCF loop after reaching     2 steps.


  Electronic density on regular grids:        -23.9997102516        0.0002897484
  Core density on regular grids:               23.9996560286       -0.0003439714
  Total charge density on r-space grids:       -0.0000542230
  Total charge density g-space grids:          -0.0000542230

  Overlap energy of the core charge distribution:               0.00000000000000
  Self energy of the core charge distribution:               -166.10482831599549
  Core Hamiltonian energy:                                     46.45114908119842
  Hartree energy:                                              70.25617276441744
  Exchange-correlation energy:                                -13.33541936448982
  Dispersion energy:                                           -0.00058394818616

  Total energy:                                               -62.73350978305561

  outer SCF iter =    1 RMS gradient =   0.15E+00 energy =        -62.7335097831

  ----------------------------------- OT ---------------------------------------
  Minimizer      : DIIS                : direct inversion
                                         in the iterative subspace
                                         using   7 DIIS vectors
                                         safer DIIS on
  Preconditioner : FULL_SINGLE_INVERSE : inversion of 
                                         H + eS - 2*(Sc)(c^T*H*c+const)(Sc)^T
  Precond_solver : DEFAULT
  stepsize       :    0.08000000                  energy_gap     :    0.08000000
  eps_taylor     :   0.10000E-15                  max_taylor     :             4
  ----------------------------------- OT ---------------------------------------

  Step     Update method      Time    Convergence         Total energy    Change
  ------------------------------------------------------------------------------
     1 OT DIIS     0.80E-01    1.6     0.09731795       -63.1320876205 -3.99E-01
     2 OT DIIS     0.80E-01    0.8     0.11378739       -63.3115565882 -1.79E-01

  Leaving inner SCF loop after reaching     2 steps.


  Electronic density on regular grids:        -23.9996929281        0.0003070719
  Core density on regular grids:               23.9996560286       -0.0003439714
  Total charge density on r-space grids:       -0.0000368995
  Total charge density g-space grids:          -0.0000368995

  Overlap energy of the core charge distribution:               0.00000000000000
  Self energy of the core charge distribution:               -166.10482831599549
  Core Hamiltonian energy:                                     45.66618370474363
  Hartree energy:                                              70.37508416748906
  Exchange-correlation energy:                                -13.24741219622782
  Dispersion energy:                                           -0.00058394818616

  Total energy:                                               -63.31155658817678

  outer SCF iter =    2 RMS gradient =   0.11E+00 energy =        -63.3115565882
  outer SCF loop FAILED to converge after    2 iterations or    4 steps


 *** WARNING in qs_scf.F:539 :: SCF run NOT converged ***

 Writing restart DM twoO2molecules_SCF_DM_SPIN_1_RESTART.dm with checksum:       0.11323467E+03

 ENERGY| Total FORCE_EVAL ( QS ) energy (a.u.):              -63.406116303711507


 MD_ENERGIES| Initialization proceeding


 ******************************** GO CP2K GO! **********************************
 INITIAL POTENTIAL ENERGY[hartree]     =                     -0.634061163037E+02
 INITIAL KINETIC ENERGY[hartree]       =                      0.519009366611E-02
 INITIAL TEMPERATURE[K]                =                                 273.150
 INITIAL PRESSURE[bar]                 =                     -0.284067565197E+04
 INITIAL VOLUME[bohr^3]                =                      0.674833458309E+04
 INITIAL CELL LNTHS[bohr]   =      0.1889726E+02   0.1889726E+02   0.1889726E+02
 INITIAL CELL ANGLS[deg]    =      0.9000000E+02   0.9000000E+02   0.9000000E+02
 ******************************** GO CP2K GO! **********************************

 Number of electrons:                                                         24
 Number of occupied orbitals:                                                 12
 Number of molecular orbitals:                                                12

 Number of orbital functions:                                                 52
 Number of independent orbital functions:                                     52

 Extrapolation method: ASPC


 SCF WAVEFUNCTION OPTIMIZATION

  ----------------------------------- OT ---------------------------------------
  Minimizer      : DIIS                : direct inversion
                                         in the iterative subspace
                                         using   7 DIIS vectors
                                         safer DIIS on
  Preconditioner : FULL_SINGLE_INVERSE : inversion of 
                                         H + eS - 2*(Sc)(c^T*H*c+const)(Sc)^T
  Precond_solver : DEFAULT
  stepsize       :    0.08000000                  energy_gap     :    0.08000000
  eps_taylor     :   0.10000E-15                  max_taylor     :             4
  ----------------------------------- OT ---------------------------------------

  Step     Update method      Time    Convergence         Total energy    Change
  ------------------------------------------------------------------------------
     1 OT DIIS     0.80E-01    0.7     0.10141592       -63.4067190158 -6.34E+01
     2 OT DIIS     0.80E-01    0.8     0.27195837       -62.9765638424  4.30E-01

  Leaving inner SCF loop after reaching     2 steps.


  Electronic density on regular grids:        -23.9996694245        0.0003305755
  Core density on regular grids:               23.9996412198       -0.0003587802
  Total charge density on r-space grids:       -0.0000282047
  Total charge density g-space grids:          -0.0000282047

  Overlap energy of the core charge distribution:               0.00000000000000
  Self energy of the core charge distribution:               -166.10482831599549
  Core Hamiltonian energy:                                     45.92745667716405
  Hartree energy:                                              70.54186253940978
  Exchange-correlation energy:                                -13.34047137060341
  Dispersion energy:                                           -0.00058337238030

  Total energy:                                               -62.97656384240538

  outer SCF iter =    1 RMS gradient =   0.27E+00 energy =        -62.9765638424

  ----------------------------------- OT ---------------------------------------
  Minimizer      : DIIS                : direct inversion
                                         in the iterative subspace
                                         using   7 DIIS vectors
                                         safer DIIS on
  Preconditioner : FULL_SINGLE_INVERSE : inversion of 
                                         H + eS - 2*(Sc)(c^T*H*c+const)(Sc)^T
  Precond_solver : DEFAULT
  stepsize       :    0.08000000                  energy_gap     :    0.08000000
  eps_taylor     :   0.10000E-15                  max_taylor     :             4
  ----------------------------------- OT ---------------------------------------

  Step     Update method      Time    Convergence         Total energy    Change
  ------------------------------------------------------------------------------
     1 OT DIIS     0.80E-01    1.6     0.07388206       -63.5305474701 -5.54E-01
     2 OT DIIS     0.80E-01    0.8     0.23698657       -63.2940977256  2.36E-01

  Leaving inner SCF loop after reaching     2 steps.


  Electronic density on regular grids:        -23.9996740652        0.0003259348
  Core density on regular grids:               23.9996412198       -0.0003587802
  Total charge density on r-space grids:       -0.0000328454
  Total charge density g-space grids:          -0.0000328454

  Overlap energy of the core charge distribution:               0.00000000000000
  Self energy of the core charge distribution:               -166.10482831599549
  Core Hamiltonian energy:                                     45.36176887805276
  Hartree energy:                                              70.69229061092095
  Exchange-correlation energy:                                -13.24274552618421
  Dispersion energy:                                           -0.00058337238030

  Total energy:                                               -63.29409772558630

  outer SCF iter =    2 RMS gradient =   0.24E+00 energy =        -63.2940977256
  outer SCF loop FAILED to converge after    2 iterations or    4 steps


 *** WARNING in qs_scf.F:539 :: SCF run NOT converged ***

 Writing restart DM twoO2molecules_SCF_DM_SPIN_1_RESTART.dm with checksum:       0.10922572E+03

 ENERGY| Total FORCE_EVAL ( QS ) energy (a.u.):              -63.613317268220847


 *******************************************************************************
 ENSEMBLE TYPE                =                                              NVT
 STEP NUMBER                  =                                                1
 TIME [fs]                    =                                         1.000000
 CONSERVED QUANTITY [hartree] =                              -0.636046557525E+02

                                              INSTANTANEOUS             AVERAGES
 CPU TIME [s]                 =                        8.63                 8.63
 ENERGY DRIFT PER ATOM [K]    =         -0.164928811321E+05   0.000000000000E+00
 POTENTIAL ENERGY[hartree]    =         -0.636133172682E+02  -0.636133172682E+02
 KINETIC ENERGY [hartree]     =          0.347180502111E-02   0.347180502111E-02
 TEMPERATURE [K]              =                     182.718              182.718
 PRESSURE [bar]               =         -0.909125872531E+04  -0.909125872531E+04
 *******************************************************************************


 Number of electrons:                                                         24
 Number of occupied orbitals:                                                 12
 Number of molecular orbitals:                                                12

 Number of orbital functions:                                                 52
 Number of independent orbital functions:                                     52

 Extrapolation method: ASPC


 SCF WAVEFUNCTION OPTIMIZATION

  ----------------------------------- OT ---------------------------------------
  Minimizer      : DIIS                : direct inversion
                                         in the iterative subspace
                                         using   7 DIIS vectors
                                         safer DIIS on
  Preconditioner : FULL_SINGLE_INVERSE : inversion of 
                                         H + eS - 2*(Sc)(c^T*H*c+const)(Sc)^T
  Precond_solver : DEFAULT
  stepsize       :    0.08000000                  energy_gap     :    0.08000000
  eps_taylor     :   0.10000E-15                  max_taylor     :             4
  ----------------------------------- OT ---------------------------------------

  Step     Update method      Time    Convergence         Total energy    Change
  ------------------------------------------------------------------------------
     1 OT DIIS     0.80E-01    0.7     0.09539622       -63.5560188652 -6.36E+01
     2 OT DIIS     0.80E-01    0.8     0.19033749       -63.3069733853  2.49E-01

  Leaving inner SCF loop after reaching     2 steps.


  Electronic density on regular grids:        -23.9996686239        0.0003313761
  Core density on regular grids:               23.9996489255       -0.0003510745
  Total charge density on r-space grids:       -0.0000196983
  Total charge density g-space grids:          -0.0000196983

  Overlap energy of the core charge distribution:               0.00000000000000
  Self energy of the core charge distribution:               -166.10482831599549
  Core Hamiltonian energy:                                     45.77414128521477
  Hartree energy:                                              70.33857235128191
  Exchange-correlation energy:                                -13.31427620687853
  Dispersion energy:                                           -0.00058249893428

  Total energy:                                               -63.30697338531162

  outer SCF iter =    1 RMS gradient =   0.19E+00 energy =        -63.3069733853

  ----------------------------------- OT ---------------------------------------
  Minimizer      : DIIS                : direct inversion
                                         in the iterative subspace
                                         using   7 DIIS vectors
                                         safer DIIS on
  Preconditioner : FULL_SINGLE_INVERSE : inversion of 
                                         H + eS - 2*(Sc)(c^T*H*c+const)(Sc)^T
  Precond_solver : DEFAULT
  stepsize       :    0.08000000                  energy_gap     :    0.08000000
  eps_taylor     :   0.10000E-15                  max_taylor     :             4
  ----------------------------------- OT ---------------------------------------

  Step     Update method      Time    Convergence         Total energy    Change
  ------------------------------------------------------------------------------
     1 OT DIIS     0.80E-01    1.7     0.03068372       -63.6373575167 -3.30E-01
     2 OT DIIS     0.80E-01    0.9     0.06973028       -63.6194229000  1.79E-02

  Leaving inner SCF loop after reaching     2 steps.


  Electronic density on regular grids:        -23.9996619545        0.0003380455
  Core density on regular grids:               23.9996489255       -0.0003510745
  Total charge density on r-space grids:       -0.0000130290
  Total charge density g-space grids:          -0.0000130290

  Overlap energy of the core charge distribution:               0.00000000000000
  Self energy of the core charge distribution:               -166.10482831599549
  Core Hamiltonian energy:                                     45.34209045061772
  Hartree energy:                                              70.36837749149558
  Exchange-correlation energy:                                -13.22448002714318
  Dispersion energy:                                           -0.00058249893428

  Total energy:                                               -63.61942289995964

  outer SCF iter =    2 RMS gradient =   0.70E-01 energy =        -63.6194229000
  outer SCF loop FAILED to converge after    2 iterations or    4 steps


 *** WARNING in qs_scf.F:539 :: SCF run NOT converged ***

 Writing restart DM twoO2molecules_SCF_DM_SPIN_1_RESTART.dm with checksum:       0.11107021E+03

 ENERGY| Total FORCE_EVAL ( QS ) energy (a.u.):              -63.648899059941172


 *******************************************************************************
 ENSEMBLE TYPE                =                                              NVT
 STEP NUMBER                  =                                                2
 TIME [fs]                    =                                         2.000000
 CONSERVED QUANTITY [hartree] =                              -0.636378458042E+02

                                              INSTANTANEOUS             AVERAGES
 CPU TIME [s]                 =                        4.37                 6.50
 ENERGY DRIFT PER ATOM [K]    =         -0.191130253578E+05  -0.955651267892E+04
 POTENTIAL ENERGY[hartree]    =         -0.636488990599E+02  -0.636311081641E+02
 KINETIC ENERGY [hartree]     =          0.586436176673E-02   0.466808339392E-02
 TEMPERATURE [K]              =                     308.636              245.677
 PRESSURE [bar]               =         -0.125760337939E+05  -0.108336462596E+05
 *******************************************************************************


 Number of electrons:                                                         24
 Number of occupied orbitals:                                                 12
 Number of molecular orbitals:                                                12

 Number of orbital functions:                                                 52
 Number of independent orbital functions:                                     52

 Extrapolation method: ASPC


 SCF WAVEFUNCTION OPTIMIZATION

  ----------------------------------- OT ---------------------------------------
  Minimizer      : DIIS                : direct inversion
                                         in the iterative subspace
                                         using   7 DIIS vectors
                                         safer DIIS on
  Preconditioner : FULL_SINGLE_INVERSE : inversion of 
                                         H + eS - 2*(Sc)(c^T*H*c+const)(Sc)^T
  Precond_solver : DEFAULT
  stepsize       :    0.08000000                  energy_gap     :    0.08000000
  eps_taylor     :   0.10000E-15                  max_taylor     :             4
  ----------------------------------- OT ---------------------------------------

  Step     Update method      Time    Convergence         Total energy    Change
  ------------------------------------------------------------------------------
     1 OT DIIS     0.80E-01    0.7     0.08735549       -63.5860829289 -6.36E+01
     2 OT DIIS     0.80E-01    0.8     0.25051498       -63.2372004705  3.49E-01

  Leaving inner SCF loop after reaching     2 steps.


  Electronic density on regular grids:        -23.9996592002        0.0003407998
  Core density on regular grids:               23.9996537468       -0.0003462532
  Total charge density on r-space grids:       -0.0000054534
  Total charge density g-space grids:          -0.0000054534

  Overlap energy of the core charge distribution:               0.00000000000000
  Self energy of the core charge distribution:               -166.10482831599549
  Core Hamiltonian energy:                                     45.75501716453748
  Hartree energy:                                              70.42868399980487
  Exchange-correlation energy:                                -13.31549183132011
  Dispersion energy:                                           -0.00058148752845

  Total energy:                                               -63.23720047050170

  outer SCF iter =    1 RMS gradient =   0.25E+00 energy =        -63.2372004705

  ----------------------------------- OT ---------------------------------------
  Minimizer      : DIIS                : direct inversion
                                         in the iterative subspace
                                         using   7 DIIS vectors
                                         safer DIIS on
  Preconditioner : FULL_SINGLE_INVERSE : inversion of 
                                         H + eS - 2*(Sc)(c^T*H*c+const)(Sc)^T
  Precond_solver : DEFAULT
  stepsize       :    0.08000000                  energy_gap     :    0.08000000
  eps_taylor     :   0.10000E-15                  max_taylor     :             4
  ----------------------------------- OT ---------------------------------------

  Step     Update method      Time    Convergence         Total energy    Change
  ------------------------------------------------------------------------------
     1 OT DIIS     0.80E-01    1.6     0.04169236       -63.6445901499 -4.07E-01
     2 OT DIIS     0.80E-01    0.8     0.14992780       -63.5380297924  1.07E-01

  Leaving inner SCF loop after reaching     2 steps.


  Electronic density on regular grids:        -23.9996596233        0.0003403767
  Core density on regular grids:               23.9996537468       -0.0003462532
  Total charge density on r-space grids:       -0.0000058765
  Total charge density g-space grids:          -0.0000058765

  Overlap energy of the core charge distribution:               0.00000000000000
  Self energy of the core charge distribution:               -166.10482831599549
  Core Hamiltonian energy:                                     45.41553321093149
  Hartree energy:                                              70.39782176582929
  Exchange-correlation energy:                                -13.24597496561846
  Dispersion energy:                                           -0.00058148752845

  Total energy:                                               -63.53802979238162

  outer SCF iter =    2 RMS gradient =   0.15E+00 energy =        -63.5380297924
  outer SCF loop FAILED to converge after    2 iterations or    4 steps


 *** WARNING in qs_scf.F:539 :: SCF run NOT converged ***

 Writing restart DM twoO2molecules_SCF_DM_SPIN_1_RESTART.dm with checksum:       0.11427695E+03

 ENERGY| Total FORCE_EVAL ( QS ) energy (a.u.):              -63.656075884022520


 *******************************************************************************
 ENSEMBLE TYPE                =                                              NVT
 STEP NUMBER                  =                                                3
 TIME [fs]                    =                                         3.000000
 CONSERVED QUANTITY [hartree] =                              -0.636362231159E+02

                                              INSTANTANEOUS             AVERAGES
 CPU TIME [s]                 =                        4.29                 5.76
 ENERGY DRIFT PER ATOM [K]    =         -0.189849244018E+05  -0.126993165865E+05
 POTENTIAL ENERGY[hartree]    =         -0.636560758840E+02  -0.636394307374E+02
 KINETIC ENERGY [hartree]     =          0.146676249012E-01   0.800126389635E-02
 TEMPERATURE [K]              =                     771.944              421.099
 PRESSURE [bar]               =         -0.123160155123E+05  -0.113277693438E+05
 *******************************************************************************


 Number of electrons:                                                         24
 Number of occupied orbitals:                                                 12
 Number of molecular orbitals:                                                12

 Number of orbital functions:                                                 52
 Number of independent orbital functions:                                     52

 Extrapolation method: ASPC


 SCF WAVEFUNCTION OPTIMIZATION

  ----------------------------------- OT ---------------------------------------
  Minimizer      : DIIS                : direct inversion
                                         in the iterative subspace
                                         using   7 DIIS vectors
                                         safer DIIS on
  Preconditioner : FULL_SINGLE_INVERSE : inversion of 
                                         H + eS - 2*(Sc)(c^T*H*c+const)(Sc)^T
  Precond_solver : DEFAULT
  stepsize       :    0.08000000                  energy_gap     :    0.08000000
  eps_taylor     :   0.10000E-15                  max_taylor     :             4
  ----------------------------------- OT ---------------------------------------

  Step     Update method      Time    Convergence         Total energy    Change
  ------------------------------------------------------------------------------
     1 OT DIIS     0.80E-01    0.7     0.05368188       -63.6436054757 -6.36E+01
     2 OT DIIS     0.80E-01    0.8     0.18410609       -63.5008776744  1.43E-01

  Leaving inner SCF loop after reaching     2 steps.


  Electronic density on regular grids:        -23.9996412669        0.0003587331
  Core density on regular grids:               23.9996544783       -0.0003455217
  Total charge density on r-space grids:        0.0000132114
  Total charge density g-space grids:           0.0000132114

  Overlap energy of the core charge distribution:               0.00000000000001
  Self energy of the core charge distribution:               -166.10482831599549
  Core Hamiltonian energy:                                     45.48451456979602
  Hartree energy:                                              70.38905277170437
  Exchange-correlation energy:                                -13.26903589414416
  Dispersion energy:                                           -0.00058080579308

  Total energy:                                               -63.50087767443235

  outer SCF iter =    1 RMS gradient =   0.18E+00 energy =        -63.5008776744

  ----------------------------------- OT ---------------------------------------
  Minimizer      : DIIS                : direct inversion
                                         in the iterative subspace
                                         using   7 DIIS vectors
                                         safer DIIS on
  Preconditioner : FULL_SINGLE_INVERSE : inversion of 
                                         H + eS - 2*(Sc)(c^T*H*c+const)(Sc)^T
  Precond_solver : DEFAULT
  stepsize       :    0.08000000                  energy_gap     :    0.08000000
  eps_taylor     :   0.10000E-15                  max_taylor     :             4
  ----------------------------------- OT ---------------------------------------

  Step     Update method      Time    Convergence         Total energy    Change
  ------------------------------------------------------------------------------
     1 OT DIIS     0.80E-01    1.6     0.04085127       -63.6606633394 -1.60E-01
     2 OT DIIS     0.80E-01    0.8     0.11861031       -63.5895420094  7.11E-02

  Leaving inner SCF loop after reaching     2 steps.


  Electronic density on regular grids:        -23.9996417631        0.0003582369
  Core density on regular grids:               23.9996544783       -0.0003455217
  Total charge density on r-space grids:        0.0000127152
  Total charge density g-space grids:           0.0000127152

  Overlap energy of the core charge distribution:               0.00000000000001
  Self energy of the core charge distribution:               -166.10482831599549
  Core Hamiltonian energy:                                     45.45201636071427
  Hartree energy:                                              70.31985289568300
  Exchange-correlation energy:                                -13.25600214405782
  Dispersion energy:                                           -0.00058080579308

  Total energy:                                               -63.58954200944912

  outer SCF iter =    2 RMS gradient =   0.12E+00 energy =        -63.5895420094
  outer SCF loop FAILED to converge after    2 iterations or    4 steps


 *** WARNING in qs_scf.F:539 :: SCF run NOT converged ***

 Writing restart DM twoO2molecules_SCF_DM_SPIN_1_RESTART.dm with checksum:       0.11483084E+03

 ENERGY| Total FORCE_EVAL ( QS ) energy (a.u.):              -63.665601786117712


 *******************************************************************************
 ENSEMBLE TYPE                =                                              NVT
 STEP NUMBER                  =                                                4
 TIME [fs]                    =                                         4.000000
 CONSERVED QUANTITY [hartree] =                              -0.636292973441E+02

                                              INSTANTANEOUS             AVERAGES
 CPU TIME [s]                 =                        4.09                 5.34
 ENERGY DRIFT PER ATOM [K]    =         -0.184381786139E+05  -0.141340320934E+05
 POTENTIAL ENERGY[hartree]    =         -0.636656017861E+02  -0.636459734996E+02
 KINETIC ENERGY [hartree]     =          0.311297408077E-01   0.137833831242E-01
 TEMPERATURE [K]              =                    1638.330              725.407
 PRESSURE [bar]               =         -0.114707482886E+05  -0.113635140800E+05
 *******************************************************************************


 Number of electrons:                                                         24
 Number of occupied orbitals:                                                 12
 Number of molecular orbitals:                                                12

 Number of orbital functions:                                                 52
 Number of independent orbital functions:                                     52

 Extrapolation method: ASPC


 SCF WAVEFUNCTION OPTIMIZATION

  ----------------------------------- OT ---------------------------------------
  Minimizer      : DIIS                : direct inversion
                                         in the iterative subspace
                                         using   7 DIIS vectors
                                         safer DIIS on
  Preconditioner : FULL_SINGLE_INVERSE : inversion of 
                                         H + eS - 2*(Sc)(c^T*H*c+const)(Sc)^T
  Precond_solver : DEFAULT
  stepsize       :    0.08000000                  energy_gap     :    0.08000000
  eps_taylor     :   0.10000E-15                  max_taylor     :             4
  ----------------------------------- OT ---------------------------------------

  Step     Update method      Time    Convergence         Total energy    Change
  ------------------------------------------------------------------------------
     1 OT DIIS     0.80E-01    0.7     0.06928941       -63.6551363575 -6.37E+01
     2 OT DIIS     0.80E-01    0.8     0.18574351       -63.4564183300  1.99E-01

  Leaving inner SCF loop after reaching     2 steps.


  Electronic density on regular grids:        -23.9996240467        0.0003759533
  Core density on regular grids:               23.9996426116       -0.0003573884
  Total charge density on r-space grids:        0.0000185649
  Total charge density g-space grids:           0.0000185649

  Overlap energy of the core charge distribution:               0.00000000000007
  Self energy of the core charge distribution:               -166.10482831599549
  Core Hamiltonian energy:                                     45.68551351866608
  Hartree energy:                                              70.28747543788813
  Exchange-correlation energy:                                -13.32399800333830
  Dispersion energy:                                           -0.00058096725244

  Total energy:                                               -63.45641833003192

  outer SCF iter =    1 RMS gradient =   0.19E+00 energy =        -63.4564183300

  ----------------------------------- OT ---------------------------------------
  Minimizer      : DIIS                : direct inversion
                                         in the iterative subspace
                                         using   7 DIIS vectors
                                         safer DIIS on
  Preconditioner : FULL_SINGLE_INVERSE : inversion of 
                                         H + eS - 2*(Sc)(c^T*H*c+const)(Sc)^T
  Precond_solver : DEFAULT
  stepsize       :    0.08000000                  energy_gap     :    0.08000000
  eps_taylor     :   0.10000E-15                  max_taylor     :             4
  ----------------------------------- OT ---------------------------------------

  Step     Update method      Time    Convergence         Total energy    Change
  ------------------------------------------------------------------------------
     1 OT DIIS     0.80E-01    1.6     0.04716768       -63.6769124815 -2.20E-01
     2 OT DIIS     0.80E-01    0.8     0.11377727       -63.5952430140  8.17E-02

  Leaving inner SCF loop after reaching     2 steps.


  Electronic density on regular grids:        -23.9996188043        0.0003811957
  Core density on regular grids:               23.9996426116       -0.0003573884
  Total charge density on r-space grids:        0.0000238073
  Total charge density g-space grids:           0.0000238073

  Overlap energy of the core charge distribution:               0.00000000000007
  Self energy of the core charge distribution:               -166.10482831599549
  Core Hamiltonian energy:                                     45.56752861748061
  Hartree energy:                                              70.23648245584666
  Exchange-correlation energy:                                -13.29384480409861
  Dispersion energy:                                           -0.00058096725244

  Total energy:                                               -63.59524301401918

  outer SCF iter =    2 RMS gradient =   0.11E+00 energy =        -63.5952430140
  outer SCF loop FAILED to converge after    2 iterations or    4 steps


 *** WARNING in qs_scf.F:539 :: SCF run NOT converged ***

 Writing restart DM twoO2molecules_SCF_DM_SPIN_1_RESTART.dm with checksum:       0.11432766E+03

 ENERGY| Total FORCE_EVAL ( QS ) energy (a.u.):              -63.685029249515182


 *******************************************************************************
 ENSEMBLE TYPE                =                                              NVT
 STEP NUMBER                  =                                                5
 TIME [fs]                    =                                         5.000000
 CONSERVED QUANTITY [hartree] =                              -0.636263252890E+02

                                              INSTANTANEOUS             AVERAGES
 CPU TIME [s]                 =                        4.27                 5.13
 ENERGY DRIFT PER ATOM [K]    =         -0.182035536968E+05  -0.149479364141E+05
 POTENTIAL ENERGY[hartree]    =         -0.636850292495E+02  -0.636537846496E+02
 KINETIC ENERGY [hartree]     =          0.535484845735E-01   0.217364034140E-01
 TEMPERATURE [K]              =                    2818.209             1143.968
 PRESSURE [bar]               =         -0.986125222463E+04  -0.110630617089E+05
 *******************************************************************************


 Number of electrons:                                                         24
 Number of occupied orbitals:                                                 12
 Number of molecular orbitals:                                                12

 Number of orbital functions:                                                 52
 Number of independent orbital functions:                                     52

 Extrapolation method: ASPC


 SCF WAVEFUNCTION OPTIMIZATION

  ----------------------------------- OT ---------------------------------------
  Minimizer      : DIIS                : direct inversion
                                         in the iterative subspace
                                         using   7 DIIS vectors
                                         safer DIIS on
  Preconditioner : FULL_SINGLE_INVERSE : inversion of 
                                         H + eS - 2*(Sc)(c^T*H*c+const)(Sc)^T
  Precond_solver : DEFAULT
  stepsize       :    0.08000000                  energy_gap     :    0.08000000
  eps_taylor     :   0.10000E-15                  max_taylor     :             4
  ----------------------------------- OT ---------------------------------------

  Step     Update method      Time    Convergence         Total energy    Change
  ------------------------------------------------------------------------------
     1 OT DIIS     0.80E-01    0.7     0.04861921       -63.6863704183 -6.37E+01
     2 OT DIIS     0.80E-01    0.8     0.14024856       -63.5877117383  9.87E-02

  Leaving inner SCF loop after reaching     2 steps.


  Electronic density on regular grids:        -23.9995955703        0.0004044297
  Core density on regular grids:               23.9996443273       -0.0003556727
  Total charge density on r-space grids:        0.0000487570
  Total charge density g-space grids:           0.0000487570

  Overlap energy of the core charge distribution:               0.00000000000081
  Self energy of the core charge distribution:               -166.10482831599549
  Core Hamiltonian energy:                                     45.73046198222163
  Hartree energy:                                              70.13889547197360
  Exchange-correlation energy:                                -13.35165874857585
  Dispersion energy:                                           -0.00058212790998

  Total energy:                                               -63.58771173828529

  outer SCF iter =    1 RMS gradient =   0.14E+00 energy =        -63.5877117383

  ----------------------------------- OT ---------------------------------------
  Minimizer      : DIIS                : direct inversion
                                         in the iterative subspace
                                         using   7 DIIS vectors
                                         safer DIIS on
  Preconditioner : FULL_SINGLE_INVERSE : inversion of 
                                         H + eS - 2*(Sc)(c^T*H*c+const)(Sc)^T
  Precond_solver : DEFAULT
  stepsize       :    0.08000000                  energy_gap     :    0.08000000
  eps_taylor     :   0.10000E-15                  max_taylor     :             4
  ----------------------------------- OT ---------------------------------------

  Step     Update method      Time    Convergence         Total energy    Change
  ------------------------------------------------------------------------------
     1 OT DIIS     0.80E-01    1.6     0.02023932       -63.7067642026 -1.19E-01
     2 OT DIIS     0.80E-01    0.8     0.06054952       -63.6929334661  1.38E-02

  Leaving inner SCF loop after reaching     2 steps.


  Electronic density on regular grids:        -23.9995962340        0.0004037660
  Core density on regular grids:               23.9996443273       -0.0003556727
  Total charge density on r-space grids:        0.0000480933
  Total charge density g-space grids:           0.0000480933

  Overlap energy of the core charge distribution:               0.00000000000081
  Self energy of the core charge distribution:               -166.10482831599549
  Core Hamiltonian energy:                                     45.60520879753075
  Hartree energy:                                              70.13567612510812
  Exchange-correlation energy:                                -13.32840794479706
  Dispersion energy:                                           -0.00058212790998

  Total energy:                                               -63.69293346606285

  outer SCF iter =    2 RMS gradient =   0.61E-01 energy =        -63.6929334661
  outer SCF loop FAILED to converge after    2 iterations or    4 steps


 *** WARNING in qs_scf.F:539 :: SCF run NOT converged ***

 Writing restart DM twoO2molecules_SCF_DM_SPIN_1_RESTART.dm with checksum:       0.11538123E+03

 ENERGY| Total FORCE_EVAL ( QS ) energy (a.u.):              -63.712298712422978


 *******************************************************************************
 ENSEMBLE TYPE                =                                              NVT
 STEP NUMBER                  =                                                6
 TIME [fs]                    =                                         6.000000
 CONSERVED QUANTITY [hartree] =                              -0.636327128402E+02

                                              INSTANTANEOUS             AVERAGES
 CPU TIME [s]                 =                        4.21                 4.98
 ENERGY DRIFT PER ATOM [K]    =         -0.187078103822E+05  -0.155745820754E+05
 POTENTIAL ENERGY[hartree]    =         -0.637122987124E+02  -0.636635369934E+02
 KINETIC ENERGY [hartree]     =          0.744533559614E-01   0.305225621719E-01
 TEMPERATURE [K]              =                    3918.414             1606.375
 PRESSURE [bar]               =         -0.799930726201E+04  -0.105524359678E+05
 *******************************************************************************


 Number of electrons:                                                         24
 Number of occupied orbitals:                                                 12
 Number of molecular orbitals:                                                12

 Number of orbital functions:                                                 52
 Number of independent orbital functions:                                     52

 Extrapolation method: ASPC


 SCF WAVEFUNCTION OPTIMIZATION

  ----------------------------------- OT ---------------------------------------
  Minimizer      : DIIS                : direct inversion
                                         in the iterative subspace
                                         using   7 DIIS vectors
                                         safer DIIS on
  Preconditioner : FULL_SINGLE_INVERSE : inversion of 
                                         H + eS - 2*(Sc)(c^T*H*c+const)(Sc)^T
  Precond_solver : DEFAULT
  stepsize       :    0.08000000                  energy_gap     :    0.08000000
  eps_taylor     :   0.10000E-15                  max_taylor     :             4
  ----------------------------------- OT ---------------------------------------

  Step     Update method      Time    Convergence         Total energy    Change
  ------------------------------------------------------------------------------
     1 OT DIIS     0.80E-01    0.7     0.06965451       -63.6927783947 -6.37E+01
     2 OT DIIS     0.80E-01    0.8     0.21501492       -63.4819986314  2.11E-01

  Leaving inner SCF loop after reaching     2 steps.


  Electronic density on regular grids:        -23.9995794238        0.0004205762
  Core density on regular grids:               23.9996493386       -0.0003506614
  Total charge density on r-space grids:        0.0000699148
  Total charge density g-space grids:           0.0000699148

  Overlap energy of the core charge distribution:               0.00000000001093
  Self energy of the core charge distribution:               -166.10482831599549
  Core Hamiltonian energy:                                     45.99731940293642
  Hartree energy:                                              70.03641810457434
  Exchange-correlation energy:                                -13.41032359850685
  Dispersion energy:                                           -0.00058422438103

  Total energy:                                               -63.48199863136167

  outer SCF iter =    1 RMS gradient =   0.22E+00 energy =        -63.4819986314

  ----------------------------------- OT ---------------------------------------
  Minimizer      : DIIS                : direct inversion
                                         in the iterative subspace
                                         using   7 DIIS vectors
                                         safer DIIS on
  Preconditioner : FULL_SINGLE_INVERSE : inversion of 
                                         H + eS - 2*(Sc)(c^T*H*c+const)(Sc)^T
  Precond_solver : DEFAULT
  stepsize       :    0.08000000                  energy_gap     :    0.08000000
  eps_taylor     :   0.10000E-15                  max_taylor     :             4
  ----------------------------------- OT ---------------------------------------

  Step     Update method      Time    Convergence         Total energy    Change
  ------------------------------------------------------------------------------
     1 OT DIIS     0.80E-01    1.6     0.03467694       -63.7288332428 -2.47E-01
     2 OT DIIS     0.80E-01    0.8     0.11770713       -63.6579624337  7.09E-02

  Leaving inner SCF loop after reaching     2 steps.


  Electronic density on regular grids:        -23.9995817627        0.0004182373
  Core density on regular grids:               23.9996493386       -0.0003506614
  Total charge density on r-space grids:        0.0000675759
  Total charge density g-space grids:           0.0000675759

  Overlap energy of the core charge distribution:               0.00000000001093
  Self energy of the core charge distribution:               -166.10482831599549
  Core Hamiltonian energy:                                     45.83565220602683
  Hartree energy:                                              70.00581486934411
  Exchange-correlation energy:                                -13.39401696867124
  Dispersion energy:                                           -0.00058422438103

  Total energy:                                               -63.65796243366588

  outer SCF iter =    2 RMS gradient =   0.12E+00 energy =        -63.6579624337
  outer SCF loop FAILED to converge after    2 iterations or    4 steps


 *** WARNING in qs_scf.F:539 :: SCF run NOT converged ***

 Writing restart DM twoO2molecules_SCF_DM_SPIN_1_RESTART.dm with checksum:       0.11450475E+03

 ENERGY| Total FORCE_EVAL ( QS ) energy (a.u.):              -63.735333053429891


 *******************************************************************************
 ENSEMBLE TYPE                =                                              NVT
 STEP NUMBER                  =                                                7
 TIME [fs]                    =                                         7.000000
 CONSERVED QUANTITY [hartree] =                              -0.636406258554E+02

                                              INSTANTANEOUS             AVERAGES
 CPU TIME [s]                 =                        4.11                 4.85
 ENERGY DRIFT PER ATOM [K]    =         -0.193324927782E+05  -0.161114264615E+05
 POTENTIAL ENERGY[hartree]    =         -0.637353330534E+02  -0.636737935734E+02
 KINETIC ENERGY [hartree]     =          0.895913738878E-01   0.389609638456E-01
 TEMPERATURE [K]              =                    4715.114             2050.481
 PRESSURE [bar]               =         -0.540570714566E+04  -0.981718899320E+04
 *******************************************************************************


 Number of electrons:                                                         24
 Number of occupied orbitals:                                                 12
 Number of molecular orbitals:                                                12

 Number of orbital functions:                                                 52
 Number of independent orbital functions:                                     52

 Extrapolation method: ASPC


 SCF WAVEFUNCTION OPTIMIZATION

  ----------------------------------- OT ---------------------------------------
  Minimizer      : DIIS                : direct inversion
                                         in the iterative subspace
                                         using   7 DIIS vectors
                                         safer DIIS on
  Preconditioner : FULL_SINGLE_INVERSE : inversion of 
                                         H + eS - 2*(Sc)(c^T*H*c+const)(Sc)^T
  Precond_solver : DEFAULT
  stepsize       :    0.08000000                  energy_gap     :    0.08000000
  eps_taylor     :   0.10000E-15                  max_taylor     :             4
  ----------------------------------- OT ---------------------------------------

  Step     Update method      Time    Convergence         Total energy    Change
  ------------------------------------------------------------------------------
     1 OT DIIS     0.80E-01    0.7     0.05534360       -63.7394404931 -6.37E+01
     2 OT DIIS     0.80E-01    0.8     0.17993303       -63.5727928318  1.67E-01

  Leaving inner SCF loop after reaching     2 steps.


  Electronic density on regular grids:        -23.9996604347        0.0003395653
  Core density on regular grids:               23.9996610596       -0.0003389404
  Total charge density on r-space grids:        0.0000006249
  Total charge density g-space grids:           0.0000006249

  Overlap energy of the core charge distribution:               0.00000000012757
  Self energy of the core charge distribution:               -166.10482831599549
  Core Hamiltonian energy:                                     46.24927039447651
  Hartree energy:                                              69.75865762625880
  Exchange-correlation energy:                                -13.47530542751142
  Dispersion energy:                                           -0.00058710916723

  Total energy:                                               -63.57279283181126

  outer SCF iter =    1 RMS gradient =   0.18E+00 energy =        -63.5727928318

  ----------------------------------- OT ---------------------------------------
  Minimizer      : DIIS                : direct inversion
                                         in the iterative subspace
                                         using   7 DIIS vectors
                                         safer DIIS on
  Preconditioner : FULL_SINGLE_INVERSE : inversion of 
                                         H + eS - 2*(Sc)(c^T*H*c+const)(Sc)^T
  Precond_solver : DEFAULT
  stepsize       :    0.08000000                  energy_gap     :    0.08000000
  eps_taylor     :   0.10000E-15                  max_taylor     :             4
  ----------------------------------- OT ---------------------------------------

  Step     Update method      Time    Convergence         Total energy    Change
  ------------------------------------------------------------------------------
     1 OT DIIS     0.80E-01    1.5     0.05375136       -63.7453789512 -1.73E-01
     2 OT DIIS     0.80E-01    0.8     0.19398042       -63.5461090822  1.99E-01

  Leaving inner SCF loop after reaching     2 steps.


  Electronic density on regular grids:        -23.9996670190        0.0003329810
  Core density on regular grids:               23.9996610596       -0.0003389404
  Total charge density on r-space grids:       -0.0000059594
  Total charge density g-space grids:          -0.0000059594

  Overlap energy of the core charge distribution:               0.00000000012757
  Self energy of the core charge distribution:               -166.10482831599549
  Core Hamiltonian energy:                                     46.24941712650772
  Hartree energy:                                              69.78747832322171
  Exchange-correlation energy:                                -13.47758910689139
  Dispersion energy:                                           -0.00058710916723

  Total energy:                                               -63.54610908219709

  outer SCF iter =    2 RMS gradient =   0.19E+00 energy =        -63.5461090822
  outer SCF loop FAILED to converge after    2 iterations or    4 steps


 *** WARNING in qs_scf.F:539 :: SCF run NOT converged ***

 Writing restart DM twoO2molecules_SCF_DM_SPIN_1_RESTART.dm with checksum:       0.11071565E+03

 ENERGY| Total FORCE_EVAL ( QS ) energy (a.u.):              -63.740800200663401


 *******************************************************************************
 ENSEMBLE TYPE                =                                              NVT
 STEP NUMBER                  =                                                8
 TIME [fs]                    =                                         8.000000
 CONSERVED QUANTITY [hartree] =                              -0.636267731165E+02

                                              INSTANTANEOUS             AVERAGES
 CPU TIME [s]                 =                        4.07                 4.75
 ENERGY DRIFT PER ATOM [K]    =         -0.182389068380E+05  -0.163773615086E+05
 POTENTIAL ENERGY[hartree]    =         -0.637408002007E+02  -0.636821694018E+02
 KINETIC ENERGY [hartree]     =          0.108917390903E+00   0.477055172277E-01
 TEMPERATURE [K]              =                    5732.225             2510.699
 PRESSURE [bar]               =         -0.257081680748E+04  -0.891139246998E+04
 *******************************************************************************


 Number of electrons:                                                         24
 Number of occupied orbitals:                                                 12
 Number of molecular orbitals:                                                12

 Number of orbital functions:                                                 52
 Number of independent orbital functions:                                     52

 Extrapolation method: ASPC


 SCF WAVEFUNCTION OPTIMIZATION

  ----------------------------------- OT ---------------------------------------
  Minimizer      : DIIS                : direct inversion
                                         in the iterative subspace
                                         using   7 DIIS vectors
                                         safer DIIS on
  Preconditioner : FULL_SINGLE_INVERSE : inversion of 
                                         H + eS - 2*(Sc)(c^T*H*c+const)(Sc)^T
  Precond_solver : DEFAULT
  stepsize       :    0.08000000                  energy_gap     :    0.08000000
  eps_taylor     :   0.10000E-15                  max_taylor     :             4
  ----------------------------------- OT ---------------------------------------

  Step     Update method      Time    Convergence         Total energy    Change
  ------------------------------------------------------------------------------
     1 OT DIIS     0.80E-01    0.7     0.14778265       -63.5937291730 -6.36E+01
     2 OT DIIS     0.80E-01    0.8     0.18230277       -63.1578775250  4.36E-01

  Leaving inner SCF loop after reaching     2 steps.


  Electronic density on regular grids:        -23.9996922286        0.0003077714
  Core density on regular grids:               23.9996504440       -0.0003495560
  Total charge density on r-space grids:       -0.0000417846
  Total charge density g-space grids:          -0.0000417846

  Overlap energy of the core charge distribution:               0.00000000232281
  Self energy of the core charge distribution:               -166.10482831599549
  Core Hamiltonian energy:                                     47.30857881872134
  Hartree energy:                                              69.25324960114609
  Exchange-correlation energy:                                -13.61428696053551
  Dispersion energy:                                           -0.00059067061418

  Total energy:                                               -63.15787752495493

  outer SCF iter =    1 RMS gradient =   0.18E+00 energy =        -63.1578775250

  ----------------------------------- OT ---------------------------------------
  Minimizer      : DIIS                : direct inversion
                                         in the iterative subspace
                                         using   7 DIIS vectors
                                         safer DIIS on
  Preconditioner : FULL_SINGLE_INVERSE : inversion of 
                                         H + eS - 2*(Sc)(c^T*H*c+const)(Sc)^T
  Precond_solver : DEFAULT
  stepsize       :    0.08000000                  energy_gap     :    0.08000000
  eps_taylor     :   0.10000E-15                  max_taylor     :             4
  ----------------------------------- OT ---------------------------------------

  Step     Update method      Time    Convergence         Total energy    Change
  ------------------------------------------------------------------------------
     1 OT DIIS     0.80E-01    2.0     0.07978241       -63.7024519456 -5.45E-01
     2 OT DIIS     0.80E-01    1.4     0.27726721       -63.3974844627  3.05E-01

  Leaving inner SCF loop after reaching     2 steps.


  Electronic density on regular grids:        -23.9997026804        0.0002973196
  Core density on regular grids:               23.9996504440       -0.0003495560
  Total charge density on r-space grids:       -0.0000522364
  Total charge density g-space grids:          -0.0000522364

  Overlap energy of the core charge distribution:               0.00000000232281
  Self energy of the core charge distribution:               -166.10482831599549
  Core Hamiltonian energy:                                     46.64611288809984
  Hartree energy:                                              69.64729537929053
  Exchange-correlation energy:                                -13.58547374577471
  Dispersion energy:                                           -0.00059067061418

  Total energy:                                               -63.39748446267120

  outer SCF iter =    2 RMS gradient =   0.28E+00 energy =        -63.3974844627
  outer SCF loop FAILED to converge after    2 iterations or    4 steps


 *** WARNING in qs_scf.F:539 :: SCF run NOT converged ***

 Writing restart DM twoO2molecules_SCF_DM_SPIN_1_RESTART.dm with checksum:       0.11012220E+03

 ENERGY| Total FORCE_EVAL ( QS ) energy (a.u.):              -63.751849540181610


 *******************************************************************************
 ENSEMBLE TYPE                =                                              NVT
 STEP NUMBER                  =                                                9
 TIME [fs]                    =                                         9.000000
 CONSERVED QUANTITY [hartree] =                              -0.636366528321E+02

                                              INSTANTANEOUS             AVERAGES
 CPU TIME [s]                 =                        5.67                 4.86
 ENERGY DRIFT PER ATOM [K]    =         -0.190188477730E+05  -0.166708599824E+05
 POTENTIAL ENERGY[hartree]    =         -0.637518495402E+02  -0.636899116394E+02
 KINETIC ENERGY [hartree]     =          0.110078689091E+00   0.546358696570E-01
 TEMPERATURE [K]              =                    5793.343             2875.437
 PRESSURE [bar]               =          0.411786668816E+04  -0.746369700797E+04
 *******************************************************************************


 Number of electrons:                                                         24
 Number of occupied orbitals:                                                 12
 Number of molecular orbitals:                                                12

 Number of orbital functions:                                                 52
 Number of independent orbital functions:                                     52

 Extrapolation method: ASPC


 SCF WAVEFUNCTION OPTIMIZATION

  ----------------------------------- OT ---------------------------------------
  Minimizer      : DIIS                : direct inversion
                                         in the iterative subspace
                                         using   7 DIIS vectors
                                         safer DIIS on
  Preconditioner : FULL_SINGLE_INVERSE : inversion of 
                                         H + eS - 2*(Sc)(c^T*H*c+const)(Sc)^T
  Precond_solver : DEFAULT
  stepsize       :    0.08000000                  energy_gap     :    0.08000000
  eps_taylor     :   0.10000E-15                  max_taylor     :             4
  ----------------------------------- OT ---------------------------------------

  Step     Update method      Time    Convergence         Total energy    Change
  ------------------------------------------------------------------------------
     1 OT DIIS     0.80E-01    1.3     0.17799350       -63.3867437433 -6.34E+01
     2 OT DIIS     0.80E-01    1.3     0.29825389       -62.7693503215  6.17E-01

  Leaving inner SCF loop after reaching     2 steps.


  Electronic density on regular grids:        -23.9996796118        0.0003203882
  Core density on regular grids:               23.9996603472       -0.0003396528
  Total charge density on r-space grids:       -0.0000192646
  Total charge density g-space grids:          -0.0000192646

  Overlap energy of the core charge distribution:               0.00000001574983
  Self energy of the core charge distribution:               -166.10482831599549
  Core Hamiltonian energy:                                     47.70264504066284
  Hartree energy:                                              69.47180201177001
  Exchange-correlation energy:                                -13.83837483354317
  Dispersion energy:                                           -0.00059424011235

  Total energy:                                               -62.76935032146832

  outer SCF iter =    1 RMS gradient =   0.30E+00 energy =        -62.7693503215

  ----------------------------------- OT ---------------------------------------
  Minimizer      : DIIS                : direct inversion
                                         in the iterative subspace
                                         using   7 DIIS vectors
                                         safer DIIS on
  Preconditioner : FULL_SINGLE_INVERSE : inversion of 
                                         H + eS - 2*(Sc)(c^T*H*c+const)(Sc)^T
  Precond_solver : DEFAULT
  stepsize       :    0.08000000                  energy_gap     :    0.08000000
  eps_taylor     :   0.10000E-15                  max_taylor     :             4
  ----------------------------------- OT ---------------------------------------

  Step     Update method      Time    Convergence         Total energy    Change
  ------------------------------------------------------------------------------
     1 OT DIIS     0.80E-01    2.6     0.06901699       -63.7155801501 -9.46E-01
     2 OT DIIS     0.80E-01    1.3     0.19537684       -63.5108075203  2.05E-01

  Leaving inner SCF loop after reaching     2 steps.


  Electronic density on regular grids:        -23.9996937191        0.0003062809
  Core density on regular grids:               23.9996603472       -0.0003396528
  Total charge density on r-space grids:       -0.0000333719
  Total charge density g-space grids:          -0.0000333719

  Overlap energy of the core charge distribution:               0.00000001574983
  Self energy of the core charge distribution:               -166.10482831599549
  Core Hamiltonian energy:                                     47.17710498219034
  Hartree energy:                                              69.11243312186649
  Exchange-correlation energy:                                -13.69492308399088
  Dispersion energy:                                           -0.00059424011235

  Total energy:                                               -63.51080752029205

  outer SCF iter =    2 RMS gradient =   0.20E+00 energy =        -63.5108075203
  outer SCF loop FAILED to converge after    2 iterations or    4 steps


 *** WARNING in qs_scf.F:539 :: SCF run NOT converged ***

 Writing restart DM twoO2molecules_SCF_DM_SPIN_1_RESTART.dm with checksum:       0.10778398E+03

 ENERGY| Total FORCE_EVAL ( QS ) energy (a.u.):              -63.738410167474896


 *******************************************************************************
 ENSEMBLE TYPE                =                                              NVT
 STEP NUMBER                  =                                               10
 TIME [fs]                    =                                        10.000000
 CONSERVED QUANTITY [hartree] =                              -0.636357218851E+02

                                              INSTANTANEOUS             AVERAGES
 CPU TIME [s]                 =                        6.90                 5.06
 ENERGY DRIFT PER ATOM [K]    =         -0.189453554081E+05  -0.168983095250E+05
 POTENTIAL ENERGY[hartree]    =         -0.637384101675E+02  -0.636947614922E+02
 KINETIC ENERGY [hartree]     =          0.975484358145E-01   0.589271262727E-01
 TEMPERATURE [K]              =                    5133.887             3101.282
 PRESSURE [bar]               =          0.606275742009E+04  -0.611105156516E+04
 *******************************************************************************


 -------------------------------------------------------------------------------
 -                                                                             -
 -                                DBCSR STATISTICS                             -
 -                                                                             -
 -------------------------------------------------------------------------------
 COUNTER                                    TOTAL       BLAS       SMM       ACC
 flops    13 x    12 x    12               329472     100.0%      0.0%      0.0%
 flops    12 x    12 x    12               936576     100.0%      0.0%      0.0%
 flops    12 x    12 x    52              2635776     100.0%      0.0%      0.0%
 flops    52 x    12 x    12              2965248     100.0%      0.0%      0.0%
 flops    13 x    13 x    12              4015440     100.0%      0.0%      0.0%
 flops    52 x    12 x    52              4283136     100.0%      0.0%      0.0%
 flops    13 x    12 x    13             14212224     100.0%      0.0%      0.0%
 flops inhomo. stacks                           0       0.0%      0.0%      0.0%
 flops total                        29.377872E+06     100.0%      0.0%      0.0%
 flops max/rank                     29.377872E+06     100.0%      0.0%      0.0%
 matmuls inhomo. stacks                         0       0.0%      0.0%      0.0%
 matmuls total                               5293     100.0%      0.0%      0.0%
 number of processed stacks                  1051     100.0%      0.0%      0.0%
 average stack size                                     5.0       0.0       0.0
 marketing flops                    32.116608E+06
 -------------------------------------------------------------------------------
 # multiplications                           1073
 max memory usage/rank             300.077056E+06
 # max total images/rank                        1
 # max 3D layers                                1
 # MPI messages exchanged                       0
 MPI messages size (bytes):
  total size                         0.000000E+00
  min size                           0.000000E+00
  max size                           0.000000E+00
  average size                       0.000000E+00
 MPI breakdown and total messages size (bytes):
             size <=      128                   0                        0
       128 < size <=     8192                   0                        0
      8192 < size <=    32768                   0                        0
     32768 < size <=   131072                   0                        0
    131072 < size <=  4194304                   0                        0
   4194304 < size <= 16777216                   0                        0
  16777216 < size                               0                        0
 -------------------------------------------------------------------------------

 MEMORY| Estimated peak process memory [MiB]                                 287

 -------------------------------------------------------------------------------
 -                                                                             -
 -                         MESSAGE PASSING PERFORMANCE                         -
 -                                                                             -
 -------------------------------------------------------------------------------

 ROUTINE             CALLS      AVE VOLUME [Bytes]
 MP_Group              206
 MP_Bcast             3267                    790.
 MP_Allreduce        11693                    186.
 MP_Sync                 4
 MP_Alltoall          6518                   2190.
 MP_Wait             25752
 MP_ISend             4204                     91.
 MP_IRecv             4204                     91.
 MP_Memory           44136
 -------------------------------------------------------------------------------


 -------------------------------------------------------------------------------
 -                                                                             -
 -                           R E F E R E N C E S                               -
 -                                                                             -
 -------------------------------------------------------------------------------
 
 CP2K version 5.1, the CP2K developers group (2017).
 CP2K is freely available from https://www.cp2k.org/ .

 Schuett, Ole; Messmer, Peter; Hutter, Juerg; VandeVondele, Joost. 
 Electronic Structure Calculations on Graphics Processing Units, John Wiley & Sons, Ltd, 173-190 (2016). 
 GPU-Accelerated Sparse Matrix-Matrix Multiplication for Linear Scaling Density Functional Theory.
 http://dx.doi.org/10.1002/9781118670712.ch8


 Borstnik, U; VandeVondele, J; Weber, V; Hutter, J. 
 PARALLEL COMPUTING, 40 (5-6), 47-58 (2014). 
 Sparse matrix multiplication: The distributed block-compressed sparse
 row library.
 http://dx.doi.org/10.1016/j.parco.2014.03.012


 Hutter, J; Iannuzzi, M; Schiffmann, F; VandeVondele, J. 
 WILEY INTERDISCIPLINARY REVIEWS-COMPUTATIONAL MOLECULAR SCIENCE, 4 (1), 15-25 (2014). 
 CP2K: atomistic simulations of condensed matter systems.
 http://dx.doi.org/10.1002/wcms.1159


 Grimme, S; Ehrlich, S; Goerigk, L. 
 JOURNAL OF COMPUTATIONAL CHEMISTRY, 32, 1456 (2011). 
 Effect of the damping function in dispersion corrected density functional theory.
 http://dx.doi.org/10.1002/jcc.21759


 Grimme, S; Antony, J; Ehrlich, S; Krieg, H. 
 JOURNAL OF CHEMICAL PHYSICS, 132 (15), 154104 (2010). 
 A consistent and accurate ab initio parametrization of density
 functional dispersion correction (DFT-D) for the 94 elements H-Pu.
 http://dx.doi.org/10.1063/1.3382344


 VandeVondele, J; Hutter, J. 
 JOURNAL OF CHEMICAL PHYSICS, 127 (11), 114105 (2007). 
 Gaussian basis sets for accurate calculations on molecular systems in
 gas and condensed phases.
 http://dx.doi.org/10.1063/1.2770708


 Krack, M. 
 THEORETICAL CHEMISTRY ACCOUNTS, 114 (1-3), 145-152 (2005). 
 Pseudopotentials for H to Kr optimized for gradient-corrected
 exchange-correlation functionals.
 http://dx.doi.org/10.1007/s00214-005-0655-y


 VandeVondele, J; Krack, M; Mohamed, F; Parrinello, M; Chassaing, T;
 Hutter, J. COMPUTER PHYSICS COMMUNICATIONS, 167 (2), 103-128 (2005). 
 QUICKSTEP: Fast and accurate density functional calculations using a
 mixed Gaussian and plane waves approach.
 http://dx.doi.org/10.1016/j.cpc.2004.12.014


 Frigo, M; Johnson, SG. 
 PROCEEDINGS OF THE IEEE, 93 (2), 216-231 (2005). 
 The design and implementation of FFTW3.
 http://dx.doi.org/10.1109/JPROC.2004.840301


 Kolafa, J. 
 JOURNAL OF COMPUTATIONAL CHEMISTRY, 25 (3), 335-342 (2004). 
 Time-reversible always stable predictor-corrector method for molecular dynamics of polarizable molecules.
 http://dx.doi.org/10.1002/jcc.10385


 VandeVondele, J; Hutter, J. 
 JOURNAL OF CHEMICAL PHYSICS, 118 (10), 4365-4369 (2003). 
 An efficient orbital transformation method for electronic structure
 calculations.
 http://dx.doi.org/10.1063/1.1543154


 Hartwigsen, C; Goedecker, S; Hutter, J. 
 PHYSICAL REVIEW B, 58 (7), 3641-3662 (1998). 
 Relativistic separable dual-space Gaussian pseudopotentials from H to Rn.
 http://dx.doi.org/10.1103/PhysRevB.58.3641


 Lippert, G; Hutter, J; Parrinello, M. 
 MOLECULAR PHYSICS, 92 (3), 477-487 (1997). 
 A hybrid Gaussian and plane wave density functional scheme.
 http://dx.doi.org/10.1080/002689797170220


 Perdew, JP; Burke, K; Ernzerhof, M. 
 PHYSICAL REVIEW LETTERS, 77 (18), 3865-3868 (1996). 
 Generalized gradient approximation made simple.
 http://dx.doi.org/10.1103/PhysRevLett.77.3865


 Goedecker, S; Teter, M; Hutter, J. 
 PHYSICAL REVIEW B, 54 (3), 1703-1710 (1996). 
 Separable dual-space Gaussian pseudopotentials.
 http://dx.doi.org/10.1103/PhysRevB.54.1703


 NOSE, S. JOURNAL OF CHEMICAL PHYSICS, 81 (1), 511-519 (1984). 
 A UNIFIED FORMULATION OF THE CONSTANT TEMPERATURE MOLECULAR-DYNAMICS
 METHODS.
 http://dx.doi.org/10.1063/1.447334


 NOSE, S. MOLECULAR PHYSICS, 52 (2), 255-268 (1984). 
 A MOLECULAR-DYNAMICS METHOD FOR SIMULATIONS IN THE CANONICAL ENSEMBLE.
 http://dx.doi.org/10.1080/00268978400101201


 -------------------------------------------------------------------------------
 -                                                                             -
 -                                T I M I N G                                  -
 -                                                                             -
 -------------------------------------------------------------------------------
 SUBROUTINE                       CALLS  ASD         SELF TIME        TOTAL TIME
                                MAXIMUM       AVERAGE  MAXIMUM  AVERAGE  MAXIMUM
 CP2K                                 1  1.0    0.016    0.016   51.067   51.067
 qs_mol_dyn_low                       1  2.0    0.004    0.004   50.662   50.662
 qs_forces                           11  3.9    0.001    0.001   50.341   50.341
 velocity_verlet                     10  3.0    0.001    0.001   45.878   45.878
 rebuild_ks_matrix                   55  8.3    0.000    0.000   41.387   41.387
 qs_ks_build_kohn_sham_matrix        55  9.3    0.009    0.009   41.387   41.387
 qs_energies                         11  4.9    0.001    0.001   40.789   40.789
 scf_env_do_scf                      11  5.9    0.002    0.002   38.489   38.489
 qs_vxc_create                       55 10.3    0.001    0.001   32.458   32.458
 xc_vxc_pw_create                    55 11.3    2.141    2.141   32.457   32.457
 qs_ks_update_qs_env                 66  7.9    0.001    0.001   31.919   31.919
 pw_transfer                       1056 12.1    0.117    0.117   24.928   24.928
 fft_wrap_pw1pw2                    946 13.2    0.013    0.013   24.320   24.320
 fft_wrap_pw1pw2_100                616 14.2    1.928    1.928   23.301   23.301
 scf_env_do_scf_inner_loop           44  6.9    0.006    0.006   21.867   21.867
 xc_rho_set_and_dset_create          55 12.3    0.201    0.201   19.747   19.747
 init_scf_loop                       22  6.9    0.001    0.001   16.613   16.613
 fft3d_s                            947 15.2   15.210   15.210   15.233   15.233
 xc_functional_eval                  55 13.3    0.001    0.001   11.631   11.631
 pbe_lda_eval                        55 14.3   11.630   11.630   11.630   11.630
 qs_ks_update_qs_env_forces          11  4.9    0.000    0.000    9.470    9.470
 qs_rho_update_rho                   55  8.1    0.000    0.000    6.006    6.006
 calculate_rho_elec                  55  9.1    0.610    0.610    6.006    6.006
 density_rs2pw                       55 10.1    0.005    0.005    5.318    5.318
 sum_up_and_integrate                55 10.3    0.106    0.106    3.999    3.999
 integrate_v_rspace                  55 11.3    0.817    0.817    3.893    3.893
 pw_gather_s                        451 14.8    3.608    3.608    3.608    3.608
 pw_scatter_s                       495 15.6    3.465    3.465    3.465    3.465
 potential_pw2rs                     55 12.3    0.015    0.015    3.066    3.066
 pw_derive                          363 12.5    2.737    2.737    2.737    2.737
 pw_poisson_solve                    55 10.3    1.418    1.418    2.382    2.382
 pw_copy                            638 12.7    1.898    1.898    1.898    1.898
 init_scf_run                        11  5.9    0.000    0.000    1.325    1.325
 scf_env_initial_rho_setup           11  6.9    0.000    0.000    1.324    1.324
 dbcsr_multiply_generic            1073 12.3    0.060    0.060    1.213    1.213
 wfi_extrapolate                     11  7.9    0.001    0.001    1.147    1.147
 pw_axpy                            440 11.4    1.053    1.053    1.053    1.053
 qs_scf_new_mos                      44  7.9    0.000    0.000    1.052    1.052
 qs_scf_loop_do_ot                   44  8.9    0.000    0.000    1.052    1.052
 -------------------------------------------------------------------------------

 The number of warnings for this run is : 11
 
 -------------------------------------------------------------------------------
  **** **** ******  **  PROGRAM ENDED AT                 2020-09-14 18:47:28.439
 ***** ** ***  *** **   PROGRAM RAN ON                           LAPTOP-SAG0HDJD
 **    ****   ******    PROGRAM RAN BY                                        rs
 ***** **    ** ** **   PROGRAM PROCESS ID                                  2889
  **** **  *******  **  PROGRAM STOPPED IN /mnt/c/Users/rstha/Documents/research
                                           /workflow/cp2kmdpy/cp2kmdpy/tests/SHO
                                           RT/dioxygen-nvt
