#     Step Nr.          Time[fs]        Kin.[a.u.]          Temp[K]            Pot.[a.u.]        Cons Qty[a.u.]        UsedTime[s]
         0            0.000000         0.005190094       273.150000000       -63.464049589       -63.453669401         0.000000000
         1            1.000000         0.006549536       344.696244077       -63.563577880       -63.551839621         6.919946000
         2            2.000000         0.012102438       636.940504977       -63.612365711       -63.595077032         3.432479300
         3            3.000000         0.023210767      1221.561988892       -63.630919901       -63.602525718         3.443431600
         4            4.000000         0.039871691      2098.411552107       -63.646811511       -63.601758044         3.436893400
         5            5.000000         0.061609955      3242.476984443       -63.671535952       -63.604742420         3.482331300
         6            6.000000         0.087405308      4600.063372787       -63.697383941       -63.604786190         3.412426800
         7            7.000000         0.115389239      6072.832716963       -63.730062504       -63.609459282         3.403215000
         8            8.000000         0.141024446      7421.990804206       -63.752611770       -63.606332099         3.403933500
         9            9.000000         0.156275708      8224.651104348       -63.762165839       -63.600568756         3.416635200
        10           10.000000         0.151481349      7972.328277684       -63.764944048       -63.608053160         3.476832000
