#     Step Nr.          Time[fs]        Kin.[a.u.]          Temp[K]            Pot.[a.u.]        Cons Qty[a.u.]        UsedTime[s]
         0            0.000000         0.005190094       273.150000000       -63.406116304       -63.395736116         0.000000000
         1            1.000000         0.003471805       182.718001355       -63.613317268       -63.604655752         8.627640400
         2            2.000000         0.005864362       308.636128678       -63.648899060       -63.637845804         4.368460200
         3            3.000000         0.014667625       771.944014792       -63.656075884       -63.636223116         4.291868300
         4            4.000000         0.031129741      1638.330490475       -63.665601786       -63.629297344         4.089612500
         5            5.000000         0.053548485      2818.208976987       -63.685029250       -63.626325289         4.274445800
         6            6.000000         0.074453356      3918.413710648       -63.712298712       -63.632712840         4.209095000
         7            7.000000         0.089591374      4715.114090759       -63.735333053       -63.640625855         4.110660200
         8            8.000000         0.108917391      5732.225127127       -63.740800201       -63.626773116         4.066680800
         9            9.000000         0.110078689      5793.343214875       -63.751849540       -63.636652832         5.667482600
        10           10.000000         0.097548436      5133.887162137       -63.738410167       -63.635721885         6.895732900
