 DBCSR| Multiplication driver                                               BLAS
 DBCSR| Multrec recursion limit                                              512
 DBCSR| Multiplication stack size                                           1000
 DBCSR| Maximum elements for images                                    UNLIMITED
 DBCSR| Multiplicative factor virtual images                                   1
 DBCSR| Multiplication size stacks                                             3
 DBCSR| Number of 3D layers                                               SINGLE
 DBCSR| Use MPI memory allocation                                              T
 DBCSR| Use RMA algorithm                                                      F
 DBCSR| Use Communication thread                                               T
 DBCSR| Communication thread load                                             87


  **** **** ******  **  PROGRAM STARTED AT               2020-09-13 18:21:10.538
 ***** ** ***  *** **   PROGRAM STARTED ON                       LAPTOP-SAG0HDJD
 **    ****   ******    PROGRAM STARTED BY                                    rs
 ***** **    ** ** **   PROGRAM PROCESS ID                                   232
  **** **  *******  **  PROGRAM STARTED IN /mnt/c/Users/rstha/Documents/research
                                           /workflow/cp2kmdpy/cp2kmdpy/tests/SHO
                                           RT/dioxygen-nvt

 CP2K| version string:                                          CP2K version 5.1
 CP2K| source code revision number:                                    svn:18091
 CP2K| cp2kflags: libint fftw3 libxc parallel mpi3 scalapack libderiv_max_am1=5 
 CP2K|            libint_max_am=6
 CP2K| is freely available from                            https://www.cp2k.org/
 CP2K| Program compiled at                          Mon Jan 15 17:12:42 UTC 2018
 CP2K| Program compiled on                                       lgw01-amd64-018
 CP2K| Program compiled for                                Linux-x86_64-gfortran
 CP2K| Data directory path                                       /usr/share/cp2k
 CP2K| Input file name                               twoO2molecules_md_input.inp

 GLOBAL| Force Environment number                                              1
 GLOBAL| Basis set file name                                        BASIS_MOLOPT
 GLOBAL| Potential file name                                      GTH_POTENTIALS
 GLOBAL| MM Potential file name                                     MM_POTENTIAL
 GLOBAL| Coordinate file name                                      __STD_INPUT__
 GLOBAL| Method name                                                        CP2K
 GLOBAL| Project name                                             twoO2molecules
 GLOBAL| Preferred FFT library                                             FFTW3
 GLOBAL| Preferred diagonalization lib.                                       SL
 GLOBAL| Run type                                                             MD
 GLOBAL| All-to-all communication in single precision                          F
 GLOBAL| FFTs using library dependent lengths                                  F
 GLOBAL| Global print level                                                  LOW
 GLOBAL| Total number of message passing processes                             1
 GLOBAL| Number of threads for this process                                    1
 GLOBAL| This output is from process                                           0
 GLOBAL| CPU model name :  Intel(R) Core(TM) i5-8250U CPU @ 1.60GHz

 MEMORY| system memory details [Kb]
 MEMORY|                        rank 0           min           max       average
 MEMORY| MemTotal              8262884       8262884       8262884       8262884
 MEMORY| MemFree               1387292       1387292       1387292       1387292
 MEMORY| Buffers                 34032         34032         34032         34032
 MEMORY| Cached                 188576        188576        188576        188576
 MEMORY| Slab                    13868         13868         13868         13868
 MEMORY| SReclaimable             6744          6744          6744          6744
 MEMORY| MemLikelyFree         1616644       1616644       1616644       1616644


 GENERATE|  Preliminary Number of Bonds generated:                             0
 GENERATE|  Achieved consistency in connectivity generation.

 *******************************************************************************
 *******************************************************************************
 **                                                                           **
 **     #####                         ##              ##                      **
 **    ##   ##            ##          ##              ##                      **
 **   ##     ##                       ##            ######                    **
 **   ##     ##  ##   ##  ##   #####  ##  ##   ####   ##    #####    #####    **
 **   ##     ##  ##   ##  ##  ##      ## ##   ##      ##   ##   ##  ##   ##   **
 **   ##  ## ##  ##   ##  ##  ##      ####     ###    ##   ######   ######    **
 **    ##  ###   ##   ##  ##  ##      ## ##      ##   ##   ##       ##        **
 **     #######   #####   ##   #####  ##  ##  ####    ##    #####   ##        **
 **           ##                                                    ##        **
 **                                                                           **
 **                                                ... make the atoms dance   **
 **                                                                           **
 **            Copyright (C) by CP2K developers group (2000 - 2017)           **
 **                                                                           **
 *******************************************************************************


 SCF PARAMETERS         Density guess:                                    ATOMIC
                        --------------------------------------------------------
                        max_scf:                                               2
                        max_scf_history:                                       0
                        max_diis:                                              4
                        --------------------------------------------------------
                        eps_scf:                                        1.00E-06
                        eps_scf_history:                                0.00E+00
                        eps_diis:                                       1.00E-01
                        eps_eigval:                                     1.00E-05
                        --------------------------------------------------------
                        level_shift [a.u.]:                                 0.00
                        --------------------------------------------------------
                        Outer loop SCF in use 
                        No variables optimised in outer loop
                        eps_scf                                         1.00E-04
                        max_scf                                                1
                        No outer loop optimization
                        step_size                                       5.00E-01

 MD| Molecular Dynamics Protocol 
 MD| Ensemble Type                                                           NVT
 MD| Number of Time Steps                                                     10
 MD| Time Step [fs]                                                         1.00
 MD| Temperature [K]                                                      273.15
 MD| Temperature tolerance [K]                                              0.00
 MD| Constraints activated 
 MD| Tolerance for shake                                              0.1000E-05
 MD| Print MD information every                                        1 step(s)
 MD| File type     Print frequency[steps]                             File names
 MD| Coordinates           10                           twoO2molecules-pos-1.xyz
 MD| Velocities             1                           twoO2molecules-vel-1.xyz
 MD| Energies               1                              twoO2molecules-1.ener
 MD| Dump                   1                           twoO2molecules-1.restart

 ROT| Rotational Analysis Info 
 ROT| Principal axes and moments of inertia in atomic units:
 ROT|                                1                 2                 3
 ROT| EIGENVALUES            0.207275406E+06   0.126492003E+07   0.130261859E+07
 ROT|      X                    -0.479781027      -0.267648955       0.835568192
 ROT|      Y                    -0.701007536       0.689641910      -0.181610766
 ROT|      Z                     0.527634912       0.672872999       0.518501038
 ROT| Numer of Rotovibrational vectors:     6

 Calculation of degrees of freedom
                                                      Number of atoms:         4
                                 Number of Intramolecular constraints:         0
                                 Number of Intermolecular constraints:         0
                                  Invariants(translation + rotations):         3
                                                   Degrees of freedom:         9


 Restraints Information
                                  Number of Intramolecular restraints:         0
                                  Number of Intermolecular restraints:         0

 THERMOSTAT| Thermostat Info for PARTICLES
 THERMOSTAT| Type of thermostat                               Nose-Hoover-Chains
 THERMOSTAT| Nose-Hoover-Chain length                                          3
 THERMOSTAT| Nose-Hoover-Chain time constant [  fs]                      1000.00
 THERMOSTAT| Order of Yoshida integrator                                       3
 THERMOSTAT| Number of multiple time steps                                     2
 THERMOSTAT| Initial Potential Energy                                   0.000000
 THERMOSTAT| Initial Kinetic Energy                                     0.000433
 THERMOSTAT| End of Thermostat Info for PARTICLES

 ************************** Velocities initialization **************************
 Initial Temperature                                                    273.15 K
 COM velocity:           -0.000000000000     -0.000000000000      0.000000000000
 *******************************************************************************


 Number of electrons:                                                         24
 Number of occupied orbitals:                                                 12
 Number of molecular orbitals:                                                12

 Number of orbital functions:                                                 52
 Number of independent orbital functions:                                     52

 Extrapolation method: initial_guess


 SCF WAVEFUNCTION OPTIMIZATION

  ----------------------------------- OT ---------------------------------------
  Minimizer      : DIIS                : direct inversion
                                         in the iterative subspace
                                         using   7 DIIS vectors
                                         safer DIIS on
  Preconditioner : FULL_SINGLE_INVERSE : inversion of 
                                         H + eS - 2*(Sc)(c^T*H*c+const)(Sc)^T
  Precond_solver : DEFAULT
  stepsize       :    0.08000000                  energy_gap     :    0.08000000
  eps_taylor     :   0.10000E-15                  max_taylor     :             4
  ----------------------------------- OT ---------------------------------------

  Step     Update method      Time    Convergence         Total energy    Change
  ------------------------------------------------------------------------------
     1 OT DIIS     0.80E-01    0.7     0.18668695       -62.2228723479 -6.22E+01
     2 OT DIIS     0.80E-01    0.7     0.14716674       -62.7335097831 -5.11E-01

  Leaving inner SCF loop after reaching     2 steps.


  Electronic density on regular grids:        -23.9997102516        0.0002897484
  Core density on regular grids:               23.9996560286       -0.0003439714
  Total charge density on r-space grids:       -0.0000542230
  Total charge density g-space grids:          -0.0000542230

  Overlap energy of the core charge distribution:               0.00000000000000
  Self energy of the core charge distribution:               -166.10482831599549
  Core Hamiltonian energy:                                     46.45114908119842
  Hartree energy:                                              70.25617276441744
  Exchange-correlation energy:                                -13.33541936448982
  Dispersion energy:                                           -0.00058394818616

  Total energy:                                               -62.73350978305561

  outer SCF iter =    1 RMS gradient =   0.15E+00 energy =        -62.7335097831

  ----------------------------------- OT ---------------------------------------
  Minimizer      : DIIS                : direct inversion
                                         in the iterative subspace
                                         using   7 DIIS vectors
                                         safer DIIS on
  Preconditioner : FULL_SINGLE_INVERSE : inversion of 
                                         H + eS - 2*(Sc)(c^T*H*c+const)(Sc)^T
  Precond_solver : DEFAULT
  stepsize       :    0.08000000                  energy_gap     :    0.08000000
  eps_taylor     :   0.10000E-15                  max_taylor     :             4
  ----------------------------------- OT ---------------------------------------

  Step     Update method      Time    Convergence         Total energy    Change
  ------------------------------------------------------------------------------
     1 OT DIIS     0.80E-01    1.5     0.09731795       -63.1320876205 -3.99E-01
     2 OT DIIS     0.80E-01    0.7     0.11378739       -63.3115565882 -1.79E-01

  Leaving inner SCF loop after reaching     2 steps.


  Electronic density on regular grids:        -23.9996929281        0.0003070719
  Core density on regular grids:               23.9996560286       -0.0003439714
  Total charge density on r-space grids:       -0.0000368995
  Total charge density g-space grids:          -0.0000368995

  Overlap energy of the core charge distribution:               0.00000000000000
  Self energy of the core charge distribution:               -166.10482831599549
  Core Hamiltonian energy:                                     45.66618370474363
  Hartree energy:                                              70.37508416748906
  Exchange-correlation energy:                                -13.24741219622782
  Dispersion energy:                                           -0.00058394818616

  Total energy:                                               -63.31155658817678

  outer SCF iter =    2 RMS gradient =   0.11E+00 energy =        -63.3115565882
  outer SCF loop FAILED to converge after    2 iterations or    4 steps


 *** WARNING in qs_scf.F:539 :: SCF run NOT converged ***

 Writing restart DM twoO2molecules_SCF_DM_SPIN_1_RESTART.dm with checksum:       0.11323467E+03

 ENERGY| Total FORCE_EVAL ( QS ) energy (a.u.):              -63.406116303711507


 MD_ENERGIES| Initialization proceeding


 ******************************** GO CP2K GO! **********************************
 INITIAL POTENTIAL ENERGY[hartree]     =                     -0.634061163037E+02
 INITIAL KINETIC ENERGY[hartree]       =                      0.389257024958E-02
 INITIAL TEMPERATURE[K]                =                                 273.150
 INITIAL PRESSURE[bar]                 =                     -0.287838811764E+04
 INITIAL VOLUME[bohr^3]                =                      0.674833458309E+04
 INITIAL CELL LNTHS[bohr]   =      0.1889726E+02   0.1889726E+02   0.1889726E+02
 INITIAL CELL ANGLS[deg]    =      0.9000000E+02   0.9000000E+02   0.9000000E+02
 ******************************** GO CP2K GO! **********************************

 Number of electrons:                                                         24
 Number of occupied orbitals:                                                 12
 Number of molecular orbitals:                                                12

 Number of orbital functions:                                                 52
 Number of independent orbital functions:                                     52

 Extrapolation method: ASPC


 SCF WAVEFUNCTION OPTIMIZATION

  ----------------------------------- OT ---------------------------------------
  Minimizer      : DIIS                : direct inversion
                                         in the iterative subspace
                                         using   7 DIIS vectors
                                         safer DIIS on
  Preconditioner : FULL_SINGLE_INVERSE : inversion of 
                                         H + eS - 2*(Sc)(c^T*H*c+const)(Sc)^T
  Precond_solver : DEFAULT
  stepsize       :    0.08000000                  energy_gap     :    0.08000000
  eps_taylor     :   0.10000E-15                  max_taylor     :             4
  ----------------------------------- OT ---------------------------------------

  Step     Update method      Time    Convergence         Total energy    Change
  ------------------------------------------------------------------------------
     1 OT DIIS     0.80E-01    0.8     0.10150675       -63.4060133551 -6.34E+01
     2 OT DIIS     0.80E-01    0.8     0.27464909       -62.9777303957  4.28E-01

  Leaving inner SCF loop after reaching     2 steps.


  Electronic density on regular grids:        -23.9996788799        0.0003211201
  Core density on regular grids:               23.9996617837       -0.0003382163
  Total charge density on r-space grids:       -0.0000170962
  Total charge density g-space grids:          -0.0000170962

  Overlap energy of the core charge distribution:               0.00000000000000
  Self energy of the core charge distribution:               -166.10482831599549
  Core Hamiltonian energy:                                     45.92802876596896
  Hartree energy:                                              70.54251007431482
  Exchange-correlation energy:                                -13.34285661658344
  Dispersion energy:                                           -0.00058430343328

  Total energy:                                               -62.97773039572843

  outer SCF iter =    1 RMS gradient =   0.27E+00 energy =        -62.9777303957

  ----------------------------------- OT ---------------------------------------
  Minimizer      : DIIS                : direct inversion
                                         in the iterative subspace
                                         using   7 DIIS vectors
                                         safer DIIS on
  Preconditioner : FULL_SINGLE_INVERSE : inversion of 
                                         H + eS - 2*(Sc)(c^T*H*c+const)(Sc)^T
  Precond_solver : DEFAULT
  stepsize       :    0.08000000                  energy_gap     :    0.08000000
  eps_taylor     :   0.10000E-15                  max_taylor     :             4
  ----------------------------------- OT ---------------------------------------

  Step     Update method      Time    Convergence         Total energy    Change
  ------------------------------------------------------------------------------
     1 OT DIIS     0.80E-01    1.5     0.07544250       -63.5321014555 -5.54E-01
     2 OT DIIS     0.80E-01    0.7     0.23955362       -63.2847887987  2.47E-01

  Leaving inner SCF loop after reaching     2 steps.


  Electronic density on regular grids:        -23.9996838033        0.0003161967
  Core density on regular grids:               23.9996617837       -0.0003382163
  Total charge density on r-space grids:       -0.0000220196
  Total charge density g-space grids:          -0.0000220196

  Overlap energy of the core charge distribution:               0.00000000000000
  Self energy of the core charge distribution:               -166.10482831599549
  Core Hamiltonian energy:                                     45.38827157924536
  Hartree energy:                                              70.68128717631248
  Exchange-correlation energy:                                -13.24893493486834
  Dispersion energy:                                           -0.00058430343328

  Total energy:                                               -63.28478879873928

  outer SCF iter =    2 RMS gradient =   0.24E+00 energy =        -63.2847887987
  outer SCF loop FAILED to converge after    2 iterations or    4 steps


 *** WARNING in qs_scf.F:539 :: SCF run NOT converged ***

 Writing restart DM twoO2molecules_SCF_DM_SPIN_1_RESTART.dm with checksum:       0.10860027E+03

 ENERGY| Total FORCE_EVAL ( QS ) energy (a.u.):              -63.616635065836569


 *******************************************************************************
 ENSEMBLE TYPE                =                                              NVT
 STEP NUMBER                  =                                                1
 TIME [fs]                    =                                         1.000000
 CONSERVED QUANTITY [hartree] =                              -0.636090744203E+02

                                              INSTANTANEOUS             AVERAGES
 CPU TIME [s]                 =                        8.41                 8.41
 ENERGY DRIFT PER ATOM [K]    =         -0.163636944548E+05   0.000000000000E+00
 POTENTIAL ENERGY[hartree]    =         -0.636166350658E+02  -0.636166350658E+02
 KINETIC ENERGY [hartree]     =          0.713046443369E-02   0.713046443369E-02
 TEMPERATURE [K]              =                     500.360              500.360
 PRESSURE [bar]               =         -0.895594718708E+04  -0.895594718708E+04
 *******************************************************************************


 Number of electrons:                                                         24
 Number of occupied orbitals:                                                 12
 Number of molecular orbitals:                                                12

 Number of orbital functions:                                                 52
 Number of independent orbital functions:                                     52

 Extrapolation method: ASPC


 SCF WAVEFUNCTION OPTIMIZATION

  ----------------------------------- OT ---------------------------------------
  Minimizer      : DIIS                : direct inversion
                                         in the iterative subspace
                                         using   7 DIIS vectors
                                         safer DIIS on
  Preconditioner : FULL_SINGLE_INVERSE : inversion of 
                                         H + eS - 2*(Sc)(c^T*H*c+const)(Sc)^T
  Precond_solver : DEFAULT
  stepsize       :    0.08000000                  energy_gap     :    0.08000000
  eps_taylor     :   0.10000E-15                  max_taylor     :             4
  ----------------------------------- OT ---------------------------------------

  Step     Update method      Time    Convergence         Total energy    Change
  ------------------------------------------------------------------------------
     1 OT DIIS     0.80E-01    0.6     0.10091138       -63.5522190096 -6.36E+01
     2 OT DIIS     0.80E-01    0.7     0.19380614       -63.2788727078  2.73E-01

  Leaving inner SCF loop after reaching     2 steps.


  Electronic density on regular grids:        -23.9996782696        0.0003217304
  Core density on regular grids:               23.9996550270       -0.0003449730
  Total charge density on r-space grids:       -0.0000232426
  Total charge density g-space grids:          -0.0000232426

  Overlap energy of the core charge distribution:               0.00000000000000
  Self energy of the core charge distribution:               -166.10482831599549
  Core Hamiltonian energy:                                     45.87000577116457
  Hartree energy:                                              70.29128718110806
  Exchange-correlation energy:                                -13.33475258730354
  Dispersion energy:                                           -0.00058475677866

  Total energy:                                               -63.27887270780506

  outer SCF iter =    1 RMS gradient =   0.19E+00 energy =        -63.2788727078

  ----------------------------------- OT ---------------------------------------
  Minimizer      : DIIS                : direct inversion
                                         in the iterative subspace
                                         using   7 DIIS vectors
                                         safer DIIS on
  Preconditioner : FULL_SINGLE_INVERSE : inversion of 
                                         H + eS - 2*(Sc)(c^T*H*c+const)(Sc)^T
  Precond_solver : DEFAULT
  stepsize       :    0.08000000                  energy_gap     :    0.08000000
  eps_taylor     :   0.10000E-15                  max_taylor     :             4
  ----------------------------------- OT ---------------------------------------

  Step     Update method      Time    Convergence         Total energy    Change
  ------------------------------------------------------------------------------
     1 OT DIIS     0.80E-01    1.4     0.03351090       -63.6413651604 -3.62E-01
     2 OT DIIS     0.80E-01    0.6     0.08691801       -63.6129534704  2.84E-02

  Leaving inner SCF loop after reaching     2 steps.


  Electronic density on regular grids:        -23.9996667357        0.0003332643
  Core density on regular grids:               23.9996550270       -0.0003449730
  Total charge density on r-space grids:       -0.0000117087
  Total charge density g-space grids:          -0.0000117087

  Overlap energy of the core charge distribution:               0.00000000000000
  Self energy of the core charge distribution:               -166.10482831599549
  Core Hamiltonian energy:                                     45.37077888189689
  Hartree energy:                                              70.35617677528310
  Exchange-correlation energy:                                -13.23449605477287
  Dispersion energy:                                           -0.00058475677866

  Total energy:                                               -63.61295347036704

  outer SCF iter =    2 RMS gradient =   0.87E-01 energy =        -63.6129534704
  outer SCF loop FAILED to converge after    2 iterations or    4 steps


 *** WARNING in qs_scf.F:539 :: SCF run NOT converged ***

 Writing restart DM twoO2molecules_SCF_DM_SPIN_1_RESTART.dm with checksum:       0.10977982E+03

 ENERGY| Total FORCE_EVAL ( QS ) energy (a.u.):              -63.654282962385871


 *******************************************************************************
 ENSEMBLE TYPE                =                                              NVT
 STEP NUMBER                  =                                                2
 TIME [fs]                    =                                         2.000000
 CONSERVED QUANTITY [hartree] =                              -0.636380710030E+02

                                              INSTANTANEOUS             AVERAGES
 CPU TIME [s]                 =                        3.57                 5.99
 ENERGY DRIFT PER ATOM [K]    =         -0.186527908779E+05  -0.932639543897E+04
 POTENTIAL ENERGY[hartree]    =         -0.636542829624E+02  -0.636354590141E+02
 KINETIC ENERGY [hartree]     =          0.157865923498E-01   0.114585283918E-01
 TEMPERATURE [K]              =                    1107.779              804.070
 PRESSURE [bar]               =         -0.120169424946E+05  -0.104864448409E+05
 *******************************************************************************


 Number of electrons:                                                         24
 Number of occupied orbitals:                                                 12
 Number of molecular orbitals:                                                12

 Number of orbital functions:                                                 52
 Number of independent orbital functions:                                     52

 Extrapolation method: ASPC


 SCF WAVEFUNCTION OPTIMIZATION

  ----------------------------------- OT ---------------------------------------
  Minimizer      : DIIS                : direct inversion
                                         in the iterative subspace
                                         using   7 DIIS vectors
                                         safer DIIS on
  Preconditioner : FULL_SINGLE_INVERSE : inversion of 
                                         H + eS - 2*(Sc)(c^T*H*c+const)(Sc)^T
  Precond_solver : DEFAULT
  stepsize       :    0.08000000                  energy_gap     :    0.08000000
  eps_taylor     :   0.10000E-15                  max_taylor     :             4
  ----------------------------------- OT ---------------------------------------

  Step     Update method      Time    Convergence         Total energy    Change
  ------------------------------------------------------------------------------
     1 OT DIIS     0.80E-01    0.7     0.08650521       -63.5938342471 -6.36E+01
     2 OT DIIS     0.80E-01    0.7     0.23564905       -63.2736506002  3.20E-01

  Leaving inner SCF loop after reaching     2 steps.


  Electronic density on regular grids:        -23.9996564789        0.0003435211
  Core density on regular grids:               23.9996560507       -0.0003439493
  Total charge density on r-space grids:       -0.0000004282
  Total charge density g-space grids:          -0.0000004282

  Overlap energy of the core charge distribution:               0.00000000000002
  Self energy of the core charge distribution:               -166.10482831599549
  Core Hamiltonian energy:                                     45.77743368861156
  Hartree energy:                                              70.37858204798515
  Exchange-correlation energy:                                -13.32425267382654
  Dispersion energy:                                           -0.00058534697831

  Total energy:                                               -63.27365060020360

  outer SCF iter =    1 RMS gradient =   0.24E+00 energy =        -63.2736506002

  ----------------------------------- OT ---------------------------------------
  Minimizer      : DIIS                : direct inversion
                                         in the iterative subspace
                                         using   7 DIIS vectors
                                         safer DIIS on
  Preconditioner : FULL_SINGLE_INVERSE : inversion of 
                                         H + eS - 2*(Sc)(c^T*H*c+const)(Sc)^T
  Precond_solver : DEFAULT
  stepsize       :    0.08000000                  energy_gap     :    0.08000000
  eps_taylor     :   0.10000E-15                  max_taylor     :             4
  ----------------------------------- OT ---------------------------------------

  Step     Update method      Time    Convergence         Total energy    Change
  ------------------------------------------------------------------------------
     1 OT DIIS     0.80E-01    1.4     0.02314487       -63.6589549405 -3.85E-01
     2 OT DIIS     0.80E-01    0.7     0.05764700       -63.6487807923  1.02E-02

  Leaving inner SCF loop after reaching     2 steps.


  Electronic density on regular grids:        -23.9996548686        0.0003451314
  Core density on regular grids:               23.9996560507       -0.0003439493
  Total charge density on r-space grids:        0.0000011822
  Total charge density g-space grids:           0.0000011822

  Overlap energy of the core charge distribution:               0.00000000000002
  Self energy of the core charge distribution:               -166.10482831599549
  Core Hamiltonian energy:                                     45.39630045836842
  Hartree energy:                                              70.30319398095935
  Exchange-correlation energy:                                -13.24286156868340
  Dispersion energy:                                           -0.00058534697831

  Total energy:                                               -63.64878079232942

  outer SCF iter =    2 RMS gradient =   0.58E-01 energy =        -63.6487807923
  outer SCF loop FAILED to converge after    2 iterations or    4 steps


 *** WARNING in qs_scf.F:539 :: SCF run NOT converged ***

 Writing restart DM twoO2molecules_SCF_DM_SPIN_1_RESTART.dm with checksum:       0.11207699E+03

 ENERGY| Total FORCE_EVAL ( QS ) energy (a.u.):              -63.667070105946593


 *******************************************************************************
 ENSEMBLE TYPE                =                                              NVT
 STEP NUMBER                  =                                                3
 TIME [fs]                    =                                         3.000000
 CONSERVED QUANTITY [hartree] =                              -0.636392963214E+02

                                              INSTANTANEOUS             AVERAGES
 CPU TIME [s]                 =                        3.80                 5.26
 ENERGY DRIFT PER ATOM [K]    =         -0.187495219982E+05  -0.124674376254E+05
 POTENTIAL ENERGY[hartree]    =         -0.636670701059E+02  -0.636459960447E+02
 KINETIC ENERGY [hartree]     =          0.273573454783E-01   0.167581340873E-01
 TEMPERATURE [K]              =                    1919.724             1175.954
 PRESSURE [bar]               =         -0.119093531121E+05  -0.109607475979E+05
 *******************************************************************************


 Number of electrons:                                                         24
 Number of occupied orbitals:                                                 12
 Number of molecular orbitals:                                                12

 Number of orbital functions:                                                 52
 Number of independent orbital functions:                                     52

 Extrapolation method: ASPC


 SCF WAVEFUNCTION OPTIMIZATION

  ----------------------------------- OT ---------------------------------------
  Minimizer      : DIIS                : direct inversion
                                         in the iterative subspace
                                         using   7 DIIS vectors
                                         safer DIIS on
  Preconditioner : FULL_SINGLE_INVERSE : inversion of 
                                         H + eS - 2*(Sc)(c^T*H*c+const)(Sc)^T
  Precond_solver : DEFAULT
  stepsize       :    0.08000000                  energy_gap     :    0.08000000
  eps_taylor     :   0.10000E-15                  max_taylor     :             4
  ----------------------------------- OT ---------------------------------------

  Step     Update method      Time    Convergence         Total energy    Change
  ------------------------------------------------------------------------------
     1 OT DIIS     0.80E-01    0.6     0.08271881       -63.6371468191 -6.36E+01
     2 OT DIIS     0.80E-01    0.9     0.21709243       -63.2832054790  3.54E-01

  Leaving inner SCF loop after reaching     2 steps.


  Electronic density on regular grids:        -23.9996353110        0.0003646890
  Core density on regular grids:               23.9996529149       -0.0003470851
  Total charge density on r-space grids:        0.0000176039
  Total charge density g-space grids:           0.0000176039

  Overlap energy of the core charge distribution:               0.00000000000017
  Self energy of the core charge distribution:               -166.10482831599549
  Core Hamiltonian energy:                                     45.84081448394053
  Hartree energy:                                              70.33125456891013
  Exchange-correlation energy:                                -13.34985979025124
  Dispersion energy:                                           -0.00058642563311

  Total energy:                                               -63.28320547902901

  outer SCF iter =    1 RMS gradient =   0.22E+00 energy =        -63.2832054790

  ----------------------------------- OT ---------------------------------------
  Minimizer      : DIIS                : direct inversion
                                         in the iterative subspace
                                         using   7 DIIS vectors
                                         safer DIIS on
  Preconditioner : FULL_SINGLE_INVERSE : inversion of 
                                         H + eS - 2*(Sc)(c^T*H*c+const)(Sc)^T
  Precond_solver : DEFAULT
  stepsize       :    0.08000000                  energy_gap     :    0.08000000
  eps_taylor     :   0.10000E-15                  max_taylor     :             4
  ----------------------------------- OT ---------------------------------------

  Step     Update method      Time    Convergence         Total energy    Change
  ------------------------------------------------------------------------------
     1 OT DIIS     0.80E-01    1.7     0.06461302       -63.6552457174 -3.72E-01
     2 OT DIIS     0.80E-01    0.7     0.17727864       -63.4494788190  2.06E-01

  Leaving inner SCF loop after reaching     2 steps.


  Electronic density on regular grids:        -23.9996318910        0.0003681090
  Core density on regular grids:               23.9996529149       -0.0003470851
  Total charge density on r-space grids:        0.0000210238
  Total charge density g-space grids:           0.0000210238

  Overlap energy of the core charge distribution:               0.00000000000017
  Self energy of the core charge distribution:               -166.10482831599549
  Core Hamiltonian energy:                                     45.67893148699135
  Hartree energy:                                              70.29318464740913
  Exchange-correlation energy:                                -13.31618021174050
  Dispersion energy:                                           -0.00058642563311

  Total energy:                                               -63.44947881896846

  outer SCF iter =    2 RMS gradient =   0.18E+00 energy =        -63.4494788190
  outer SCF loop FAILED to converge after    2 iterations or    4 steps


 *** WARNING in qs_scf.F:539 :: SCF run NOT converged ***

 Writing restart DM twoO2molecules_SCF_DM_SPIN_1_RESTART.dm with checksum:       0.11240764E+03

 ENERGY| Total FORCE_EVAL ( QS ) energy (a.u.):              -63.681811173023199


 *******************************************************************************
 ENSEMBLE TYPE                =                                              NVT
 STEP NUMBER                  =                                                4
 TIME [fs]                    =                                         4.000000
 CONSERVED QUANTITY [hartree] =                              -0.636355877608E+02

                                              INSTANTANEOUS             AVERAGES
 CPU TIME [s]                 =                        4.11                 4.97
 ENERGY DRIFT PER ATOM [K]    =         -0.184567546445E+05  -0.139647668802E+05
 POTENTIAL ENERGY[hartree]    =         -0.636818111730E+02  -0.636549498268E+02
 KINETIC ENERGY [hartree]     =          0.458216526540E-01   0.240240137290E-01
 TEMPERATURE [K]              =                    3215.404             1685.817
 PRESSURE [bar]               =         -0.106817750794E+05  -0.108910044683E+05
 *******************************************************************************


 Number of electrons:                                                         24
 Number of occupied orbitals:                                                 12
 Number of molecular orbitals:                                                12

 Number of orbital functions:                                                 52
 Number of independent orbital functions:                                     52

 Extrapolation method: ASPC


 SCF WAVEFUNCTION OPTIMIZATION

  ----------------------------------- OT ---------------------------------------
  Minimizer      : DIIS                : direct inversion
                                         in the iterative subspace
                                         using   7 DIIS vectors
                                         safer DIIS on
  Preconditioner : FULL_SINGLE_INVERSE : inversion of 
                                         H + eS - 2*(Sc)(c^T*H*c+const)(Sc)^T
  Precond_solver : DEFAULT
  stepsize       :    0.08000000                  energy_gap     :    0.08000000
  eps_taylor     :   0.10000E-15                  max_taylor     :             4
  ----------------------------------- OT ---------------------------------------

  Step     Update method      Time    Convergence         Total energy    Change
  ------------------------------------------------------------------------------
     1 OT DIIS     0.80E-01    0.7     0.07432521       -63.6503010347 -6.37E+01
     2 OT DIIS     0.80E-01    1.0     0.19751071       -63.4346947884  2.16E-01

  Leaving inner SCF loop after reaching     2 steps.


  Electronic density on regular grids:        -23.9995929588        0.0004070412
  Core density on regular grids:               23.9996638969       -0.0003361031
  Total charge density on r-space grids:        0.0000709381
  Total charge density g-space grids:           0.0000709381

  Overlap energy of the core charge distribution:               0.00000000000189
  Self energy of the core charge distribution:               -166.10482831599549
  Core Hamiltonian energy:                                     45.72010167548306
  Hartree energy:                                              70.30433855882720
  Exchange-correlation energy:                                -13.35371853188429
  Dispersion energy:                                           -0.00058817486085

  Total energy:                                               -63.43469478842847

  outer SCF iter =    1 RMS gradient =   0.20E+00 energy =        -63.4346947884

  ----------------------------------- OT ---------------------------------------
  Minimizer      : DIIS                : direct inversion
                                         in the iterative subspace
                                         using   7 DIIS vectors
                                         safer DIIS on
  Preconditioner : FULL_SINGLE_INVERSE : inversion of 
                                         H + eS - 2*(Sc)(c^T*H*c+const)(Sc)^T
  Precond_solver : DEFAULT
  stepsize       :    0.08000000                  energy_gap     :    0.08000000
  eps_taylor     :   0.10000E-15                  max_taylor     :             4
  ----------------------------------- OT ---------------------------------------

  Step     Update method      Time    Convergence         Total energy    Change
  ------------------------------------------------------------------------------
     1 OT DIIS     0.80E-01    1.8     0.02062684       -63.6966896794 -2.62E-01
     2 OT DIIS     0.80E-01    0.6     0.06395468       -63.6803081016  1.64E-02

  Leaving inner SCF loop after reaching     2 steps.


  Electronic density on regular grids:        -23.9996021947        0.0003978053
  Core density on regular grids:               23.9996638969       -0.0003361031
  Total charge density on r-space grids:        0.0000617022
  Total charge density g-space grids:           0.0000617022

  Overlap energy of the core charge distribution:               0.00000000000189
  Self energy of the core charge distribution:               -166.10482831599549
  Core Hamiltonian energy:                                     45.58333232695732
  Hartree energy:                                              70.15864772181436
  Exchange-correlation energy:                                -13.31687165947302
  Dispersion energy:                                           -0.00058817486085

  Total energy:                                               -63.68030810155578

  outer SCF iter =    2 RMS gradient =   0.64E-01 energy =        -63.6803081016
  outer SCF loop FAILED to converge after    2 iterations or    4 steps


 *** WARNING in qs_scf.F:539 :: SCF run NOT converged ***

 Writing restart DM twoO2molecules_SCF_DM_SPIN_1_RESTART.dm with checksum:       0.11186917E+03

 ENERGY| Total FORCE_EVAL ( QS ) energy (a.u.):              -63.702543425744892


 *******************************************************************************
 ENSEMBLE TYPE                =                                              NVT
 STEP NUMBER                  =                                                5
 TIME [fs]                    =                                         5.000000
 CONSERVED QUANTITY [hartree] =                              -0.636373303222E+02

                                              INSTANTANEOUS             AVERAGES
 CPU TIME [s]                 =                        3.97                 4.77
 ENERGY DRIFT PER ATOM [K]    =         -0.185943188162E+05  -0.148906772674E+05
 POTENTIAL ENERGY[hartree]    =         -0.637025434257E+02  -0.636644685466E+02
 KINETIC ENERGY [hartree]     =          0.648323574952E-01   0.321856824822E-01
 TEMPERATURE [K]              =                    4549.426             2258.538
 PRESSURE [bar]               =         -0.865235128686E+04  -0.104432738320E+05
 *******************************************************************************


 Number of electrons:                                                         24
 Number of occupied orbitals:                                                 12
 Number of molecular orbitals:                                                12

 Number of orbital functions:                                                 52
 Number of independent orbital functions:                                     52

 Extrapolation method: ASPC


 SCF WAVEFUNCTION OPTIMIZATION

  ----------------------------------- OT ---------------------------------------
  Minimizer      : DIIS                : direct inversion
                                         in the iterative subspace
                                         using   7 DIIS vectors
                                         safer DIIS on
  Preconditioner : FULL_SINGLE_INVERSE : inversion of 
                                         H + eS - 2*(Sc)(c^T*H*c+const)(Sc)^T
  Precond_solver : DEFAULT
  stepsize       :    0.08000000                  energy_gap     :    0.08000000
  eps_taylor     :   0.10000E-15                  max_taylor     :             4
  ----------------------------------- OT ---------------------------------------

  Step     Update method      Time    Convergence         Total energy    Change
  ------------------------------------------------------------------------------
     1 OT DIIS     0.80E-01    0.6     0.05839955       -63.6853706852 -6.37E+01
     2 OT DIIS     0.80E-01    0.7     0.15682680       -63.5648932588  1.20E-01

  Leaving inner SCF loop after reaching     2 steps.


  Electronic density on regular grids:        -23.9996182106        0.0003817894
  Core density on regular grids:               23.9996533282       -0.0003466718
  Total charge density on r-space grids:        0.0000351176
  Total charge density g-space grids:           0.0000351176

  Overlap energy of the core charge distribution:               0.00000000002356
  Self energy of the core charge distribution:               -166.10482831599549
  Core Hamiltonian energy:                                     45.93503242813527
  Hartree energy:                                              70.00493545716867
  Exchange-correlation energy:                                -13.39944217986833
  Dispersion energy:                                           -0.00059064825293

  Total energy:                                               -63.56489325878924

  outer SCF iter =    1 RMS gradient =   0.16E+00 energy =        -63.5648932588

  ----------------------------------- OT ---------------------------------------
  Minimizer      : DIIS                : direct inversion
                                         in the iterative subspace
                                         using   7 DIIS vectors
                                         safer DIIS on
  Preconditioner : FULL_SINGLE_INVERSE : inversion of 
                                         H + eS - 2*(Sc)(c^T*H*c+const)(Sc)^T
  Precond_solver : DEFAULT
  stepsize       :    0.08000000                  energy_gap     :    0.08000000
  eps_taylor     :   0.10000E-15                  max_taylor     :             4
  ----------------------------------- OT ---------------------------------------

  Step     Update method      Time    Convergence         Total energy    Change
  ------------------------------------------------------------------------------
     1 OT DIIS     0.80E-01    1.4     0.01991162       -63.7141013657 -1.49E-01
     2 OT DIIS     0.80E-01    0.7     0.05340842       -63.7029066215  1.12E-02

  Leaving inner SCF loop after reaching     2 steps.


  Electronic density on regular grids:        -23.9996141245        0.0003858755
  Core density on regular grids:               23.9996533282       -0.0003466718
  Total charge density on r-space grids:        0.0000392036
  Total charge density g-space grids:           0.0000392036

  Overlap energy of the core charge distribution:               0.00000000002356
  Self energy of the core charge distribution:               -166.10482831599549
  Core Hamiltonian energy:                                     45.78382291164254
  Hartree energy:                                              69.99133062179756
  Exchange-correlation energy:                                -13.37264119070685
  Dispersion energy:                                           -0.00059064825293

  Total energy:                                               -63.70290662149160

  outer SCF iter =    2 RMS gradient =   0.53E-01 energy =        -63.7029066215
  outer SCF loop FAILED to converge after    2 iterations or    4 steps


 *** WARNING in qs_scf.F:539 :: SCF run NOT converged ***

 Writing restart DM twoO2molecules_SCF_DM_SPIN_1_RESTART.dm with checksum:       0.11091355E+03

 ENERGY| Total FORCE_EVAL ( QS ) energy (a.u.):              -63.719511275214948


 *******************************************************************************
 ENSEMBLE TYPE                =                                              NVT
 STEP NUMBER                  =                                                6
 TIME [fs]                    =                                         6.000000
 CONSERVED QUANTITY [hartree] =                              -0.636346092273E+02

                                              INSTANTANEOUS             AVERAGES
 CPU TIME [s]                 =                        3.53                 4.56
 ENERGY DRIFT PER ATOM [K]    =         -0.183795056268E+05  -0.154721486606E+05
 POTENTIAL ENERGY[hartree]    =         -0.637195112752E+02  -0.636736423347E+02
 KINETIC ENERGY [hartree]     =          0.845473409160E-01   0.409126255545E-01
 TEMPERATURE [K]              =                    5932.868             2870.927
 PRESSURE [bar]               =         -0.671532056659E+04  -0.982194828777E+04
 *******************************************************************************


 Number of electrons:                                                         24
 Number of occupied orbitals:                                                 12
 Number of molecular orbitals:                                                12

 Number of orbital functions:                                                 52
 Number of independent orbital functions:                                     52

 Extrapolation method: ASPC


 SCF WAVEFUNCTION OPTIMIZATION

  ----------------------------------- OT ---------------------------------------
  Minimizer      : DIIS                : direct inversion
                                         in the iterative subspace
                                         using   7 DIIS vectors
                                         safer DIIS on
  Preconditioner : FULL_SINGLE_INVERSE : inversion of 
                                         H + eS - 2*(Sc)(c^T*H*c+const)(Sc)^T
  Precond_solver : DEFAULT
  stepsize       :    0.08000000                  energy_gap     :    0.08000000
  eps_taylor     :   0.10000E-15                  max_taylor     :             4
  ----------------------------------- OT ---------------------------------------

  Step     Update method      Time    Convergence         Total energy    Change
  ------------------------------------------------------------------------------
     1 OT DIIS     0.80E-01    0.6     0.03012666       -63.7230054281 -6.37E+01
     2 OT DIIS     0.80E-01    0.6     0.09117803       -63.6898673640  3.31E-02

  Leaving inner SCF loop after reaching     2 steps.


  Electronic density on regular grids:        -23.9995901748        0.0004098252
  Core density on regular grids:               23.9996627647       -0.0003372353
  Total charge density on r-space grids:        0.0000725899
  Total charge density g-space grids:           0.0000725899

  Overlap energy of the core charge distribution:               0.00000000036117
  Self energy of the core charge distribution:               -166.10482831599549
  Core Hamiltonian energy:                                     46.05763372327505
  Hartree energy:                                              69.80160086928949
  Exchange-correlation energy:                                -13.44367967170081
  Dispersion energy:                                           -0.00059396925985

  Total energy:                                               -63.68986736403047

  outer SCF iter =    1 RMS gradient =   0.91E-01 energy =        -63.6898673640

  ----------------------------------- OT ---------------------------------------
  Minimizer      : DIIS                : direct inversion
                                         in the iterative subspace
                                         using   7 DIIS vectors
                                         safer DIIS on
  Preconditioner : FULL_SINGLE_INVERSE : inversion of 
                                         H + eS - 2*(Sc)(c^T*H*c+const)(Sc)^T
  Precond_solver : DEFAULT
  stepsize       :    0.08000000                  energy_gap     :    0.08000000
  eps_taylor     :   0.10000E-15                  max_taylor     :             4
  ----------------------------------- OT ---------------------------------------

  Step     Update method      Time    Convergence         Total energy    Change
  ------------------------------------------------------------------------------
     1 OT DIIS     0.80E-01    1.4     0.02050632       -63.7335176045 -4.37E-02
     2 OT DIIS     0.80E-01    0.9     0.07497517       -63.7112377604  2.23E-02

  Leaving inner SCF loop after reaching     2 steps.


  Electronic density on regular grids:        -23.9995909926        0.0004090074
  Core density on regular grids:               23.9996627647       -0.0003372353
  Total charge density on r-space grids:        0.0000717721
  Total charge density g-space grids:           0.0000717721

  Overlap energy of the core charge distribution:               0.00000000036117
  Self energy of the core charge distribution:               -166.10482831599549
  Core Hamiltonian energy:                                     46.04412320878016
  Hartree energy:                                              69.79047774394563
  Exchange-correlation energy:                                -13.44041642822103
  Dispersion energy:                                           -0.00059396925985

  Total energy:                                               -63.71123776038942

  outer SCF iter =    2 RMS gradient =   0.75E-01 energy =        -63.7112377604
  outer SCF loop FAILED to converge after    2 iterations or    4 steps


 *** WARNING in qs_scf.F:539 :: SCF run NOT converged ***

 Writing restart DM twoO2molecules_SCF_DM_SPIN_1_RESTART.dm with checksum:       0.10882252E+03

 ENERGY| Total FORCE_EVAL ( QS ) energy (a.u.):              -63.737933103001794


 *******************************************************************************
 ENSEMBLE TYPE                =                                              NVT
 STEP NUMBER                  =                                                7
 TIME [fs]                    =                                         7.000000
 CONSERVED QUANTITY [hartree] =                              -0.636327314637E+02

                                              INSTANTANEOUS             AVERAGES
 CPU TIME [s]                 =                        3.98                 4.48
 ENERGY DRIFT PER ATOM [K]    =         -0.182312680926E+05  -0.158663085795E+05
 POTENTIAL ENERGY[hartree]    =         -0.637379331030E+02  -0.636828267302E+02
 KINETIC ENERGY [hartree]     =          0.104876039249E+00   0.500502560823E-01
 TEMPERATURE [K]              =                    7359.377             3512.134
 PRESSURE [bar]               =         -0.313544718904E+04  -0.886673384510E+04
 *******************************************************************************


 Number of electrons:                                                         24
 Number of occupied orbitals:                                                 12
 Number of molecular orbitals:                                                12

 Number of orbital functions:                                                 52
 Number of independent orbital functions:                                     52

 Extrapolation method: ASPC


 SCF WAVEFUNCTION OPTIMIZATION

  ----------------------------------- OT ---------------------------------------
  Minimizer      : DIIS                : direct inversion
                                         in the iterative subspace
                                         using   7 DIIS vectors
                                         safer DIIS on
  Preconditioner : FULL_SINGLE_INVERSE : inversion of 
                                         H + eS - 2*(Sc)(c^T*H*c+const)(Sc)^T
  Precond_solver : DEFAULT
  stepsize       :    0.08000000                  energy_gap     :    0.08000000
  eps_taylor     :   0.10000E-15                  max_taylor     :             4
  ----------------------------------- OT ---------------------------------------

  Step     Update method      Time    Convergence         Total energy    Change
  ------------------------------------------------------------------------------
     1 OT DIIS     0.80E-01    0.8     0.02391917       -63.7382836233 -6.37E+01
     2 OT DIIS     0.80E-01    0.8     0.09715220       -63.6990083416  3.93E-02

  Leaving inner SCF loop after reaching     2 steps.


  Electronic density on regular grids:        -23.9995994925        0.0004005075
  Core density on regular grids:               23.9996673304       -0.0003326696
  Total charge density on r-space grids:        0.0000678379
  Total charge density g-space grids:           0.0000678379

  Overlap energy of the core charge distribution:               0.00000000592151
  Self energy of the core charge distribution:               -166.10482831599549
  Core Hamiltonian energy:                                     46.34765560170681
  Hartree energy:                                              69.58825854603658
  Exchange-correlation energy:                                -13.52949630103987
  Dispersion energy:                                           -0.00059787827648

  Total energy:                                               -63.69900834164692

  outer SCF iter =    1 RMS gradient =   0.97E-01 energy =        -63.6990083416

  ----------------------------------- OT ---------------------------------------
  Minimizer      : DIIS                : direct inversion
                                         in the iterative subspace
                                         using   7 DIIS vectors
                                         safer DIIS on
  Preconditioner : FULL_SINGLE_INVERSE : inversion of 
                                         H + eS - 2*(Sc)(c^T*H*c+const)(Sc)^T
  Precond_solver : DEFAULT
  stepsize       :    0.08000000                  energy_gap     :    0.08000000
  eps_taylor     :   0.10000E-15                  max_taylor     :             4
  ----------------------------------- OT ---------------------------------------

  Step     Update method      Time    Convergence         Total energy    Change
  ------------------------------------------------------------------------------
     1 OT DIIS     0.80E-01    1.7     0.01824143       -63.7412824610 -4.23E-02
     2 OT DIIS     0.80E-01    0.7     0.06675352       -63.7205052475  2.08E-02

  Leaving inner SCF loop after reaching     2 steps.


  Electronic density on regular grids:        -23.9996003374        0.0003996626
  Core density on regular grids:               23.9996673304       -0.0003326696
  Total charge density on r-space grids:        0.0000669930
  Total charge density g-space grids:           0.0000669930

  Overlap energy of the core charge distribution:               0.00000000592151
  Self energy of the core charge distribution:               -166.10482831599549
  Core Hamiltonian energy:                                     46.34973096657993
  Hartree energy:                                              69.56203314851383
  Exchange-correlation energy:                                -13.52684317428777
  Dispersion energy:                                           -0.00059787827648

  Total energy:                                               -63.72050524754445

  outer SCF iter =    2 RMS gradient =   0.67E-01 energy =        -63.7205052475
  outer SCF loop FAILED to converge after    2 iterations or    4 steps


 *** WARNING in qs_scf.F:539 :: SCF run NOT converged ***

 Writing restart DM twoO2molecules_SCF_DM_SPIN_1_RESTART.dm with checksum:       0.10517527E+03

 ENERGY| Total FORCE_EVAL ( QS ) energy (a.u.):              -63.742029790719485


 *******************************************************************************
 ENSEMBLE TYPE                =                                              NVT
 STEP NUMBER                  =                                                8
 TIME [fs]                    =                                         8.000000
 CONSERVED QUANTITY [hartree] =                              -0.636366692168E+02

                                              INSTANTANEOUS             AVERAGES
 CPU TIME [s]                 =                        4.21                 4.45
 ENERGY DRIFT PER ATOM [K]    =         -0.185421287364E+05  -0.162007860991E+05
 POTENTIAL ENERGY[hartree]    =         -0.637420297907E+02  -0.636902271127E+02
 KINETIC ENERGY [hartree]     =          0.105062072728E+00   0.569267331631E-01
 TEMPERATURE [K]              =                    7372.431             3994.671
 PRESSURE [bar]               =          0.303854106775E+04  -0.737857448099E+04
 *******************************************************************************


 Number of electrons:                                                         24
 Number of occupied orbitals:                                                 12
 Number of molecular orbitals:                                                12

 Number of orbital functions:                                                 52
 Number of independent orbital functions:                                     52

 Extrapolation method: ASPC


 SCF WAVEFUNCTION OPTIMIZATION

  ----------------------------------- OT ---------------------------------------
  Minimizer      : DIIS                : direct inversion
                                         in the iterative subspace
                                         using   7 DIIS vectors
                                         safer DIIS on
  Preconditioner : FULL_SINGLE_INVERSE : inversion of 
                                         H + eS - 2*(Sc)(c^T*H*c+const)(Sc)^T
  Precond_solver : DEFAULT
  stepsize       :    0.08000000                  energy_gap     :    0.08000000
  eps_taylor     :   0.10000E-15                  max_taylor     :             4
  ----------------------------------- OT ---------------------------------------

  Step     Update method      Time    Convergence         Total energy    Change
  ------------------------------------------------------------------------------
     1 OT DIIS     0.80E-01    0.6     0.04285768       -63.7064546606 -6.37E+01
     2 OT DIIS     0.80E-01    0.7     0.14387810       -63.6048141782  1.02E-01

  Leaving inner SCF loop after reaching     2 steps.


  Electronic density on regular grids:        -23.9995875789        0.0004124211
  Core density on regular grids:               23.9996570049       -0.0003429951
  Total charge density on r-space grids:        0.0000694260
  Total charge density g-space grids:           0.0000694260

  Overlap energy of the core charge distribution:               0.00000005114922
  Self energy of the core charge distribution:               -166.10482831599549
  Core Hamiltonian energy:                                     46.78875596525066
  Hartree energy:                                              69.35600498468372
  Exchange-correlation energy:                                -13.64414507931848
  Dispersion energy:                                           -0.00060178398148

  Total energy:                                               -63.60481417821185

  outer SCF iter =    1 RMS gradient =   0.14E+00 energy =        -63.6048141782

  ----------------------------------- OT ---------------------------------------
  Minimizer      : DIIS                : direct inversion
                                         in the iterative subspace
                                         using   7 DIIS vectors
                                         safer DIIS on
  Preconditioner : FULL_SINGLE_INVERSE : inversion of 
                                         H + eS - 2*(Sc)(c^T*H*c+const)(Sc)^T
  Precond_solver : DEFAULT
  stepsize       :    0.08000000                  energy_gap     :    0.08000000
  eps_taylor     :   0.10000E-15                  max_taylor     :             4
  ----------------------------------- OT ---------------------------------------

  Step     Update method      Time    Convergence         Total energy    Change
  ------------------------------------------------------------------------------
     1 OT DIIS     0.80E-01    1.5     0.02424047       -63.7186039426 -1.14E-01
     2 OT DIIS     0.80E-01    0.7     0.06999023       -63.6936778313  2.49E-02

  Leaving inner SCF loop after reaching     2 steps.


  Electronic density on regular grids:        -23.9995921537        0.0004078463
  Core density on regular grids:               23.9996570049       -0.0003429951
  Total charge density on r-space grids:        0.0000648512
  Total charge density g-space grids:           0.0000648512

  Overlap energy of the core charge distribution:               0.00000005114922
  Self energy of the core charge distribution:               -166.10482831599549
  Core Hamiltonian energy:                                     46.76011436830225
  Hartree energy:                                              69.28027018445492
  Exchange-correlation energy:                                -13.62863233519196
  Dispersion energy:                                           -0.00060178398148

  Total energy:                                               -63.69367783126255

  outer SCF iter =    2 RMS gradient =   0.70E-01 energy =        -63.6936778313
  outer SCF loop FAILED to converge after    2 iterations or    4 steps


 *** WARNING in qs_scf.F:539 :: SCF run NOT converged ***

 Writing restart DM twoO2molecules_SCF_DM_SPIN_1_RESTART.dm with checksum:       0.10168326E+03

 ENERGY| Total FORCE_EVAL ( QS ) energy (a.u.):              -63.723181581879864


 *******************************************************************************
 ENSEMBLE TYPE                =                                              NVT
 STEP NUMBER                  =                                                9
 TIME [fs]                    =                                         9.000000
 CONSERVED QUANTITY [hartree] =                              -0.636378011528E+02

                                              INSTANTANEOUS             AVERAGES
 CPU TIME [s]                 =                        3.97                 4.39
 ENERGY DRIFT PER ATOM [K]    =         -0.186314879086E+05  -0.164708640779E+05
 POTENTIAL ENERGY[hartree]    =         -0.637231815819E+02  -0.636938887204E+02
 KINETIC ENERGY [hartree]     =          0.851017875100E-01   0.600572947572E-01
 TEMPERATURE [K]              =                    5971.775             4214.349
 PRESSURE [bar]               =          0.867668975058E+04  -0.559465623304E+04
 *******************************************************************************


 Number of electrons:                                                         24
 Number of occupied orbitals:                                                 12
 Number of molecular orbitals:                                                12

 Number of orbital functions:                                                 52
 Number of independent orbital functions:                                     52

 Extrapolation method: ASPC


 SCF WAVEFUNCTION OPTIMIZATION

  ----------------------------------- OT ---------------------------------------
  Minimizer      : DIIS                : direct inversion
                                         in the iterative subspace
                                         using   7 DIIS vectors
                                         safer DIIS on
  Preconditioner : FULL_SINGLE_INVERSE : inversion of 
                                         H + eS - 2*(Sc)(c^T*H*c+const)(Sc)^T
  Precond_solver : DEFAULT
  stepsize       :    0.08000000                  energy_gap     :    0.08000000
  eps_taylor     :   0.10000E-15                  max_taylor     :             4
  ----------------------------------- OT ---------------------------------------

  Step     Update method      Time    Convergence         Total energy    Change
  ------------------------------------------------------------------------------
     1 OT DIIS     0.80E-01    0.8     0.02203665       -63.6931427976 -6.37E+01
     2 OT DIIS     0.80E-01    0.8     0.06939118       -63.6735303965  1.96E-02

  Leaving inner SCF loop after reaching     2 steps.


  Electronic density on regular grids:        -23.9996207457        0.0003792543
  Core density on regular grids:               23.9996617372       -0.0003382628
  Total charge density on r-space grids:        0.0000409916
  Total charge density g-space grids:           0.0000409916

  Overlap energy of the core charge distribution:               0.00000018207954
  Self energy of the core charge distribution:               -166.10482831599549
  Core Hamiltonian energy:                                     47.10672432835353
  Hartree energy:                                              69.03969506469065
  Exchange-correlation energy:                                -13.71451635648452
  Dispersion energy:                                           -0.00060529910435

  Total energy:                                               -63.67353039646066

  outer SCF iter =    1 RMS gradient =   0.69E-01 energy =        -63.6735303965

  ----------------------------------- OT ---------------------------------------
  Minimizer      : DIIS                : direct inversion
                                         in the iterative subspace
                                         using   7 DIIS vectors
                                         safer DIIS on
  Preconditioner : FULL_SINGLE_INVERSE : inversion of 
                                         H + eS - 2*(Sc)(c^T*H*c+const)(Sc)^T
  Precond_solver : DEFAULT
  stepsize       :    0.08000000                  energy_gap     :    0.08000000
  eps_taylor     :   0.10000E-15                  max_taylor     :             4
  ----------------------------------- OT ---------------------------------------

  Step     Update method      Time    Convergence         Total energy    Change
  ------------------------------------------------------------------------------
     1 OT DIIS     0.80E-01    1.7     0.01171677       -63.6995491311 -2.60E-02
     2 OT DIIS     0.80E-01    0.7     0.03256644       -63.6968485702  2.70E-03

  Leaving inner SCF loop after reaching     2 steps.


  Electronic density on regular grids:        -23.9996217092        0.0003782908
  Core density on regular grids:               23.9996617372       -0.0003382628
  Total charge density on r-space grids:        0.0000400281
  Total charge density g-space grids:           0.0000400281

  Overlap energy of the core charge distribution:               0.00000018207954
  Self energy of the core charge distribution:               -166.10482831599549
  Core Hamiltonian energy:                                     47.10670739770310
  Hartree energy:                                              69.01591353652282
  Exchange-correlation energy:                                -13.71403607140414
  Dispersion energy:                                           -0.00060529910435

  Total energy:                                               -63.69684857019853

  outer SCF iter =    2 RMS gradient =   0.33E-01 energy =        -63.6968485702
  outer SCF loop FAILED to converge after    2 iterations or    4 steps


 *** WARNING in qs_scf.F:539 :: SCF run NOT converged ***

 Writing restart DM twoO2molecules_SCF_DM_SPIN_1_RESTART.dm with checksum:       0.99810632E+02

 ENERGY| Total FORCE_EVAL ( QS ) energy (a.u.):              -63.702606473145977


 *******************************************************************************
 ENSEMBLE TYPE                =                                              NVT
 STEP NUMBER                  =                                               10
 TIME [fs]                    =                                        10.000000
 CONSERVED QUANTITY [hartree] =                              -0.636364243336E+02

                                              INSTANTANEOUS             AVERAGES
 CPU TIME [s]                 =                        4.05                 4.36
 ENERGY DRIFT PER ATOM [K]    =         -0.185227967622E+05  -0.166760573464E+05
 POTENTIAL ENERGY[hartree]    =         -0.637026064731E+02  -0.636947604957E+02
 KINETIC ENERGY [hartree]     =          0.659161198827E-01   0.606431772697E-01
 TEMPERATURE [K]              =                    4625.475             4255.462
 PRESSURE [bar]               =          0.133284128644E+05  -0.370234932329E+04
 *******************************************************************************


 -------------------------------------------------------------------------------
 -                                                                             -
 -                                DBCSR STATISTICS                             -
 -                                                                             -
 -------------------------------------------------------------------------------
 COUNTER                                    TOTAL       BLAS       SMM       ACC
 flops    13 x    12 x    12               329472     100.0%      0.0%      0.0%
 flops    12 x    12 x    12              1019520     100.0%      0.0%      0.0%
 flops    12 x    12 x    52              2635776     100.0%      0.0%      0.0%
 flops    52 x    12 x    12              2965248     100.0%      0.0%      0.0%
 flops    13 x    13 x    12              4015440     100.0%      0.0%      0.0%
 flops    52 x    12 x    52              4283136     100.0%      0.0%      0.0%
 flops    13 x    12 x    13             14212224     100.0%      0.0%      0.0%
 flops inhomo. stacks                           0       0.0%      0.0%      0.0%
 flops total                        29.460816E+06     100.0%      0.0%      0.0%
 flops max/rank                     29.460816E+06     100.0%      0.0%      0.0%
 matmuls inhomo. stacks                         0       0.0%      0.0%      0.0%
 matmuls total                               5317     100.0%      0.0%      0.0%
 number of processed stacks                  1075     100.0%      0.0%      0.0%
 average stack size                                     4.9       0.0       0.0
 marketing flops                    32.199552E+06
 -------------------------------------------------------------------------------
 # multiplications                           1097
 max memory usage/rank             300.109824E+06
 # max total images/rank                        1
 # max 3D layers                                1
 # MPI messages exchanged                       0
 MPI messages size (bytes):
  total size                         0.000000E+00
  min size                           0.000000E+00
  max size                           0.000000E+00
  average size                       0.000000E+00
 MPI breakdown and total messages size (bytes):
             size <=      128                   0                        0
       128 < size <=     8192                   0                        0
      8192 < size <=    32768                   0                        0
     32768 < size <=   131072                   0                        0
    131072 < size <=  4194304                   0                        0
   4194304 < size <= 16777216                   0                        0
  16777216 < size                               0                        0
 -------------------------------------------------------------------------------

 MEMORY| Estimated peak process memory [MiB]                                 287

 -------------------------------------------------------------------------------
 -                                                                             -
 -                         MESSAGE PASSING PERFORMANCE                         -
 -                                                                             -
 -------------------------------------------------------------------------------

 ROUTINE             CALLS      AVE VOLUME [Bytes]
 MP_Group              194
 MP_Bcast             3219                    795.
 MP_Allreduce        11618                    186.
 MP_Sync                 4
 MP_Alltoall          6373                   2217.
 MP_Wait             26328
 MP_ISend             4300                     89.
 MP_IRecv             4300                     89.
 MP_Memory           45096
 -------------------------------------------------------------------------------


 -------------------------------------------------------------------------------
 -                                                                             -
 -                           R E F E R E N C E S                               -
 -                                                                             -
 -------------------------------------------------------------------------------
 
 CP2K version 5.1, the CP2K developers group (2017).
 CP2K is freely available from https://www.cp2k.org/ .

 Schuett, Ole; Messmer, Peter; Hutter, Juerg; VandeVondele, Joost. 
 Electronic Structure Calculations on Graphics Processing Units, John Wiley & Sons, Ltd, 173-190 (2016). 
 GPU-Accelerated Sparse Matrix-Matrix Multiplication for Linear Scaling Density Functional Theory.
 http://dx.doi.org/10.1002/9781118670712.ch8


 Borstnik, U; VandeVondele, J; Weber, V; Hutter, J. 
 PARALLEL COMPUTING, 40 (5-6), 47-58 (2014). 
 Sparse matrix multiplication: The distributed block-compressed sparse
 row library.
 http://dx.doi.org/10.1016/j.parco.2014.03.012


 Hutter, J; Iannuzzi, M; Schiffmann, F; VandeVondele, J. 
 WILEY INTERDISCIPLINARY REVIEWS-COMPUTATIONAL MOLECULAR SCIENCE, 4 (1), 15-25 (2014). 
 CP2K: atomistic simulations of condensed matter systems.
 http://dx.doi.org/10.1002/wcms.1159


 Grimme, S; Ehrlich, S; Goerigk, L. 
 JOURNAL OF COMPUTATIONAL CHEMISTRY, 32, 1456 (2011). 
 Effect of the damping function in dispersion corrected density functional theory.
 http://dx.doi.org/10.1002/jcc.21759


 Grimme, S; Antony, J; Ehrlich, S; Krieg, H. 
 JOURNAL OF CHEMICAL PHYSICS, 132 (15), 154104 (2010). 
 A consistent and accurate ab initio parametrization of density
 functional dispersion correction (DFT-D) for the 94 elements H-Pu.
 http://dx.doi.org/10.1063/1.3382344


 VandeVondele, J; Hutter, J. 
 JOURNAL OF CHEMICAL PHYSICS, 127 (11), 114105 (2007). 
 Gaussian basis sets for accurate calculations on molecular systems in
 gas and condensed phases.
 http://dx.doi.org/10.1063/1.2770708


 Krack, M. 
 THEORETICAL CHEMISTRY ACCOUNTS, 114 (1-3), 145-152 (2005). 
 Pseudopotentials for H to Kr optimized for gradient-corrected
 exchange-correlation functionals.
 http://dx.doi.org/10.1007/s00214-005-0655-y


 VandeVondele, J; Krack, M; Mohamed, F; Parrinello, M; Chassaing, T;
 Hutter, J. COMPUTER PHYSICS COMMUNICATIONS, 167 (2), 103-128 (2005). 
 QUICKSTEP: Fast and accurate density functional calculations using a
 mixed Gaussian and plane waves approach.
 http://dx.doi.org/10.1016/j.cpc.2004.12.014


 Frigo, M; Johnson, SG. 
 PROCEEDINGS OF THE IEEE, 93 (2), 216-231 (2005). 
 The design and implementation of FFTW3.
 http://dx.doi.org/10.1109/JPROC.2004.840301


 Kolafa, J. 
 JOURNAL OF COMPUTATIONAL CHEMISTRY, 25 (3), 335-342 (2004). 
 Time-reversible always stable predictor-corrector method for molecular dynamics of polarizable molecules.
 http://dx.doi.org/10.1002/jcc.10385


 VandeVondele, J; Hutter, J. 
 JOURNAL OF CHEMICAL PHYSICS, 118 (10), 4365-4369 (2003). 
 An efficient orbital transformation method for electronic structure
 calculations.
 http://dx.doi.org/10.1063/1.1543154


 Hartwigsen, C; Goedecker, S; Hutter, J. 
 PHYSICAL REVIEW B, 58 (7), 3641-3662 (1998). 
 Relativistic separable dual-space Gaussian pseudopotentials from H to Rn.
 http://dx.doi.org/10.1103/PhysRevB.58.3641


 Lippert, G; Hutter, J; Parrinello, M. 
 MOLECULAR PHYSICS, 92 (3), 477-487 (1997). 
 A hybrid Gaussian and plane wave density functional scheme.
 http://dx.doi.org/10.1080/002689797170220


 Perdew, JP; Burke, K; Ernzerhof, M. 
 PHYSICAL REVIEW LETTERS, 77 (18), 3865-3868 (1996). 
 Generalized gradient approximation made simple.
 http://dx.doi.org/10.1103/PhysRevLett.77.3865


 Goedecker, S; Teter, M; Hutter, J. 
 PHYSICAL REVIEW B, 54 (3), 1703-1710 (1996). 
 Separable dual-space Gaussian pseudopotentials.
 http://dx.doi.org/10.1103/PhysRevB.54.1703


 NOSE, S. JOURNAL OF CHEMICAL PHYSICS, 81 (1), 511-519 (1984). 
 A UNIFIED FORMULATION OF THE CONSTANT TEMPERATURE MOLECULAR-DYNAMICS
 METHODS.
 http://dx.doi.org/10.1063/1.447334


 NOSE, S. MOLECULAR PHYSICS, 52 (2), 255-268 (1984). 
 A MOLECULAR-DYNAMICS METHOD FOR SIMULATIONS IN THE CANONICAL ENSEMBLE.
 http://dx.doi.org/10.1080/00268978400101201


 -------------------------------------------------------------------------------
 -                                                                             -
 -                                T I M I N G                                  -
 -                                                                             -
 -------------------------------------------------------------------------------
 SUBROUTINE                       CALLS  ASD         SELF TIME        TOTAL TIME
                                MAXIMUM       AVERAGE  MAXIMUM  AVERAGE  MAXIMUM
 CP2K                                 1  1.0    0.009    0.009   43.968   43.968
 qs_mol_dyn_low                       1  2.0    0.003    0.003   43.626   43.626
 qs_forces                           11  3.9    0.001    0.001   43.363   43.363
 velocity_verlet                     10  3.0    0.001    0.001   39.004   39.004
 rebuild_ks_matrix                   55  8.3    0.000    0.000   35.789   35.789
 qs_ks_build_kohn_sham_matrix        55  9.3    0.007    0.007   35.789   35.789
 qs_energies                         11  4.9    0.001    0.001   35.161   35.161
 scf_env_do_scf                      11  5.9    0.002    0.002   33.123   33.123
 qs_vxc_create                       55 10.3    0.001    0.001   28.364   28.364
 xc_vxc_pw_create                    55 11.3    1.887    1.887   28.363   28.363
 qs_ks_update_qs_env                 66  7.9    0.001    0.001   27.657   27.657
 pw_transfer                       1056 12.1    0.096    0.096   20.642   20.642
 fft_wrap_pw1pw2                    946 13.2    0.011    0.011   20.142   20.142
 fft_wrap_pw1pw2_100                616 14.2    1.722    1.722   19.369   19.369
 scf_env_do_scf_inner_loop           44  6.9    0.006    0.006   18.539   18.539
 xc_rho_set_and_dset_create          55 12.3    0.185    0.185   17.587   17.587
 init_scf_loop                       22  6.9    0.001    0.001   14.576   14.576
 fft3d_s                            947 15.2   12.451   12.451   12.471   12.471
 xc_functional_eval                  55 13.3    0.001    0.001   10.662   10.662
 pbe_lda_eval                        55 14.3   10.661   10.661   10.661   10.661
 qs_ks_update_qs_env_forces          11  4.9    0.000    0.000    8.135    8.135
 qs_rho_update_rho                   55  8.1    0.000    0.000    5.040    5.040
 calculate_rho_elec                  55  9.1    0.488    0.488    5.040    5.040
 density_rs2pw                       55 10.1    0.005    0.005    4.475    4.475
 sum_up_and_integrate                55 10.3    0.100    0.100    3.275    3.275
 integrate_v_rspace                  55 11.3    0.688    0.688    3.175    3.175
 pw_scatter_s                       495 15.6    2.942    2.942    2.942    2.942
 pw_gather_s                        451 14.8    2.937    2.937    2.937    2.937
 pw_derive                          363 12.5    2.480    2.480    2.480    2.480
 potential_pw2rs                     55 12.3    0.014    0.014    2.478    2.478
 pw_poisson_solve                    55 10.3    1.193    1.193    2.061    2.061
 pw_copy                            638 12.7    1.673    1.673    1.673    1.673
 init_scf_run                        11  5.9    0.000    0.000    1.145    1.145
 scf_env_initial_rho_setup           11  6.9    0.000    0.000    1.145    1.145
 dbcsr_multiply_generic            1097 12.4    0.049    0.049    1.009    1.009
 wfi_extrapolate                     11  7.9    0.001    0.001    0.985    0.985
 pw_axpy                            440 11.4    0.963    0.963    0.963    0.963
 -------------------------------------------------------------------------------

 The number of warnings for this run is : 11
 
 -------------------------------------------------------------------------------
  **** **** ******  **  PROGRAM ENDED AT                 2020-09-13 18:21:54.855
 ***** ** ***  *** **   PROGRAM RAN ON                           LAPTOP-SAG0HDJD
 **    ****   ******    PROGRAM RAN BY                                        rs
 ***** **    ** ** **   PROGRAM PROCESS ID                                   232
  **** **  *******  **  PROGRAM STOPPED IN /mnt/c/Users/rstha/Documents/research
                                           /workflow/cp2kmdpy/cp2kmdpy/tests/SHO
                                           RT/dioxygen-nvt
