#     Step Nr.          Time[fs]        Kin.[a.u.]          Temp[K]            Pot.[a.u.]        Cons Qty[a.u.]        UsedTime[s]
         0            0.000000         0.003892570       273.150000000       -63.406116304       -63.401791226         0.000000000
         1            1.000000         0.007130464       500.359976874       -63.616635066       -63.609074420         8.412034600
         2            2.000000         0.015786592      1107.779031300       -63.654282962       -63.638071003         3.571651400
         3            3.000000         0.027357345      1919.723585769       -63.667070106       -63.639296321         3.795414300
         4            4.000000         0.045821653      3215.403607368       -63.681811173       -63.635587761         4.109759600
         5            5.000000         0.064832357      4549.425524614       -63.702543426       -63.637330322         3.965961700
         6            6.000000         0.084547341      5932.868179750       -63.719511275       -63.634609227         3.529285700
         7            7.000000         0.104876039      7359.376526084       -63.737933103       -63.632731464         3.979308600
         8            8.000000         0.105062073      7372.430894174       -63.742029791       -63.636669217         4.212434300
         9            9.000000         0.085101788      5971.774885973       -63.723181582       -63.637801153         3.966565800
        10           10.000000         0.065916120      4625.475454910       -63.702606473       -63.636424334         4.051514800
