#     Step Nr.          Time[fs]        Kin.[a.u.]          Temp[K]            Pot.[a.u.]        Cons Qty[a.u.]        UsedTime[s]
         0            0.000000         0.003892570       273.150000000       -63.406116282       -63.401791204         0.000000000
         1            1.000000         0.007129522       500.293839629       -63.616876791       -63.609317087         5.776474953
         2            2.000000         0.015788935      1107.943435164       -63.654181622       -63.637967320         2.185214996
         3            3.000000         0.027365311      1920.282571093       -63.667072246       -63.639290497         2.151218176
         4            4.000000         0.045823620      3215.541637474       -63.681956203       -63.635730827         2.427150965
         5            5.000000         0.064825136      4548.918805081       -63.702541961       -63.637336081         2.722712040
         6            6.000000         0.084538195      5932.226373199       -63.719607534       -63.634714632         2.151069880
         7            7.000000         0.104886262      7360.093876131       -63.738006493       -63.632794631         2.409090042
         8            8.000000         0.105121727      7376.616977436       -63.742370567       -63.636950347         2.699512959
         9            9.000000         0.085109403      5972.309269812       -63.723118746       -63.637730714         2.322301149
        10           10.000000         0.065865990      4621.957741045       -63.702351009       -63.636219006         2.227546930
